    1052
 i =    10000, time =    20000.000, E =    -18495.5355875997
  O         1.6480161609       20.1033124890       11.9180185317
  O        21.4681551939        9.3811426415       16.2025845533
  O        16.8582541760       14.1905044119       24.5929613865
  O        10.8061384050        5.0157137192       23.0494000100
  O        10.2081728840       23.0828643141       11.6523428908
  O        11.1204194348       24.2585824939       16.7740459081
  O         2.0786531257        7.6359089054       22.8677473181
  O         2.8130688860        0.9956368203       20.4499737896
  O        22.3168788052        0.3743827851        1.6598145550
  O         4.6054220419        1.6690364865       14.1357812528
  O         6.2375869905       13.9361008021       20.5182223440
  O         8.2361660644       13.2264180782       18.8736957432
  O         5.9044959747       17.0833588950       24.6355961047
  O        17.3069951233        3.9383157664        9.2765973331
  O        17.9187503844       24.2681122139       10.7936174540
  O         8.8033747240       20.0140590905       20.3323665833
  O        19.3452424080        3.4754567361       13.7630094761
  O         5.4455310899       15.5420748008        3.3379722855
  O        25.3228331231        4.8114976598       14.0498024500
  O        19.8991107936        5.9823961986       13.2904154897
  O        21.1350813509       23.0936752823        8.5129523468
  O        16.3201093038        0.3372464076        5.6838785387
  O        15.4219430197        4.1134463089       23.9101329885
  O         4.3577403171       10.8644390717       14.0833461788
  O        12.3358569557       17.8090723452        2.5780277248
  O        23.4107799651       20.2713942305       14.7439908675
  O         9.0628459139       12.1885534262       24.7133147734
  O        22.6405083431        2.4245725048        6.2403772102
  O        17.9676372139       20.4442960695       25.1624670659
  O         4.1584733463       21.2117106766       10.2234551802
  O        18.8097490129       24.5740350123        8.4861757234
  O        10.9563266855        7.7027201921        3.1245852924
  O        12.3613932583       24.1459125254       12.9924614370
  O        25.1864850028       12.8455092655        2.9535289594
  O        17.2379338420       23.4613224129       17.6355123053
  O        22.8186097101       23.7426555534       11.1339898933
  O         6.2188312572        4.1065271502       18.2077652515
  O         8.3352472577        5.0157143693       14.1965701922
  O        25.1038789734       16.3657673464       17.5143409150
  O        17.5220184962       14.9123898803       21.4567463397
  O         3.3451581867        9.3348684144       12.1761131490
  O        18.4508523725        9.9876370556        1.9685710414
  O         2.9380472072       19.1101338353        7.4249482295
  O         2.2648861338       11.6473439552        3.4786664155
  O        24.7303744740        8.2301902611        2.4101890019
  O         4.2630448193       18.5026813391       10.8553688750
  O        10.1250856087        3.4490560197        3.6684605750
  O        10.8757745794        6.5751356805       20.7421892646
  O         5.6393595909       19.7543136042       15.1004153661
  O        16.2116640845       20.0007968755       20.3929556287
  O        20.2966809893        0.8538799119       13.6690657485
  O        23.0119871885        4.5694521556       17.8580105079
  O         7.3816287367       15.9987795915       22.8140441101
  O         1.5783560892       18.4275640006        9.9914249160
  O         2.2942564564       13.6057412317        1.7455696365
  O         3.6239672149       11.7113879453       16.3853766431
  O        18.5545643403        7.2574526289        3.8798997738
  O         2.3042258920       20.7177594394        1.3128838096
  O         1.5122276922        7.8531177408       13.4693905145
  O        17.4408864137        9.2690011757        5.2508299974
  O         1.3653909619        8.4861709981       10.6608610673
  O        19.8850588721        3.8297173496       20.4844608676
  O         2.8170388747       12.0344216932       12.2920457676
  O        22.2096048353        7.0669867978       17.6044327813
  O         9.1032902190       18.0975060625        6.1642129253
  O         8.5128933052       21.5206379978       22.5297213600
  O         5.6180990639        3.9100119990        5.2008742726
  O        19.9323564752        6.1044043411       22.3459623681
  O         0.8074363565       23.8393896169        5.8908463140
  O        16.0833912746       24.8248247371        8.9792423641
  O        18.4617494941       22.1048793702       12.0977983231
  O        13.5739446910        5.7075775582        7.4777643249
  O         5.3277236352       24.5509532500        1.8703318960
  O        10.3600154740        7.7291097490       23.0368148020
  O        13.2741284048        1.7927146862        4.3825690830
  O        10.4819809879        0.5204346982       11.7881346262
  O         0.2390384616        4.2352896081       16.7535349782
  O         2.9438945115        5.4197587328       23.9052283434
  O         7.2432873166       21.4495221187       13.8516770874
  O        22.5977000755       19.9816547560       17.3540867700
  O         4.8971010541       16.0656511895       18.7278475564
  O         7.7234291979        9.0208733209       17.2425545231
  O         1.9832657227        0.6352101649        7.2644852566
  O        17.4578744436        2.8009431172       11.6218682161
  O        21.7853214088       16.6253063585        3.2365873655
  O         3.4452064106        4.1961815332       18.2491818812
  O        23.5111007693       16.9974602292       15.4951861723
  O         2.9894933793       21.1307462003       21.5067035128
  O        18.9830941483       11.0102594998       18.5768685081
  O        22.9831705563       11.7521280132       16.5961825665
  O        18.8957913156       23.1887719246       19.5683533933
  O        22.3334763479       18.5384688051        6.6599069130
  O        21.2211350357        6.8687178567        2.8357926697
  O         8.3076281782        0.6938647303       20.6199412431
  O         0.7983149360        5.2336787580       22.3343788888
  O        24.3749263227        2.7329095052        8.4318607762
  O         7.0136487591        8.8492819169        6.9947002959
  O        22.7812638468       24.7464314414        4.1253720871
  O        23.4163668715        6.7253280592       24.7372032485
  O        11.2325902565        1.9728207582        7.9186811613
  O        24.9969917043        3.2203958476        5.7486151718
  O        24.3851040530        2.1141755883       23.2830578388
  O        25.3785625609        0.6285052691       21.1963510435
  O        17.6328188391       12.3517650151        0.8838023778
  O        13.6193458662       22.7174301359       24.9307228218
  O        16.8494739119        5.5404574201        1.1102525052
  O         4.8157913138        9.5926965399       24.8661144369
  O        22.5163334937        9.7076810144        8.5903320077
  O         6.2738380731        5.3434577960       23.0501205802
  O         3.9924651532        6.6182498162        3.9929272573
  O        15.8224173263       21.3862550336        8.5964531367
  O         2.5907346482       16.7470973621       11.9207077659
  O        15.1395854192        6.3000828258        5.1933065085
  O         0.5283950267       18.2479464709       15.7196922399
  O        24.8151091374       22.0637245165       23.5406728609
  O        20.9558228216       20.6489353323        6.1407924689
  O         6.4517786887        0.8955626458       15.9810945253
  O         1.0863614423       14.8574043077       22.0059816201
  O        16.4934899374       11.5038522710        3.0733169255
  O        11.3634361691       18.8642622631       22.0789135306
  O         2.6005872217        7.4273734039        5.9333879417
  O        13.5373553530       15.5312886666        2.0436990985
  O         1.6570176324        4.5897783134       11.9785029807
  O        18.7044660655       10.3147255447       21.2941091696
  O        24.1537382401       14.8056162434        1.4479065371
  O         9.9774849063        9.8325817947       24.6891616431
  O         6.9327037835       -0.3014955672        3.7537114504
  O         7.4174349684       18.8149438660       13.4211087268
  O         8.4594461072       23.6413143794       24.3516104960
  O        14.9979866790       18.8499151094        5.1801692007
  O         0.6214385642       12.7477977460       10.8147092247
  O        19.6674307501       16.7888763466       21.8525650138
  O        12.6432336799        4.2976782837        3.7370682986
  O        21.2526894541        2.5337358752       15.1832346114
  O        19.8386234369       20.1497292464       10.9668337660
  O         5.6769692478        8.7662460688        4.5904190850
  O        19.8149890206       18.6098866054        3.0821526338
  O         8.0199985909       14.9427821389        3.1523669945
  O         9.3663560211        3.8618609757        8.2503231669
  O        20.1900061349       22.3100034449        0.8875002101
  O        21.7333534022        2.0200611277        3.7132705185
  O        23.3644727913       16.4836908948       10.9640266320
  O        17.7874409706       16.5953764502       23.5238253871
  O        19.9480874438        2.5210900099       18.2405660787
  O        14.9493182082       24.2880074652       13.5713554344
  O        19.2675298297        4.9196803262       24.9760331050
  O        21.0696982897        0.2271033718        6.1946151327
  O         3.6512000742       13.6954747663       24.7575764414
  O        24.2188751194        0.9732533555       11.0786927276
  O        25.9776196271        6.3205409045       24.7256198751
  O        19.5906225107        5.0311177675       17.9198591992
  O        15.6537984657        6.9115412238       19.7360786831
  O         3.2930340159       13.7150486254        5.8950973214
  O        20.7265657152        9.2474183469       19.7915175159
  O        22.3657624942        4.0924060821       22.9784529189
  O        24.4589131239        4.2242665061       24.8081177129
  O        11.0600692489       22.1347991687        9.3293121459
  O        25.3513578294       17.0936810735       21.3286192009
  O         2.4769214803       19.5080467742       23.7824710710
  O        24.5770799314       18.8177858819       11.6719706331
  O         6.5673359090        2.0970665862       19.7168467147
  O         6.9288752477       10.9878661371        5.5516971878
  O        10.7109751894       24.7855131267       23.9498163720
  O         1.7887968211       23.6463037236       20.7200867673
  O        15.2935201654        4.3894738726       18.7869015505
  O        25.0934217882       11.3500194814        6.0375697232
  O        20.2179615305       23.8282335764       15.0432830073
  O        19.7333728206        7.4167739840       16.8457403729
  O         3.1988990808        6.7989314863       11.7935772555
  O         2.2982227527       16.0102960898        0.3125142798
  O        15.3972162768       20.9350282685       24.4384274631
  O        24.7102651585        6.6826599870       18.0700714512
  O         1.0977659919       14.0489578601       24.5650563896
  O        10.9049517796        4.8916568536       14.3931605759
  O        18.7033076665       21.8950039049       16.0824726567
  O         9.9856641901       12.1343288640       22.1323257075
  O        19.9252404105        2.5155831334        6.2274994233
  O         4.1979525727        8.6200695022       20.3864719197
  O        25.5022832240       23.9999256937       10.6181066288
  O        23.2068304106       14.4327676481        3.9731880098
  O        16.4215234917       22.8885081256       15.2760709101
  O        13.5490525733       21.2336030550        7.0526213326
  O        13.8124793306       24.5491037094        4.8541833229
  O        14.3436343277        3.7637014139        5.7622994478
  O        13.6345482568       20.0484571270       21.2118256653
  O        14.4985306219        1.5673299443        8.2715347886
  O        23.1587259750        5.9098502528        7.4437739373
  O         2.5023474076       23.9084439544       14.1587574163
  O        15.6527010815       23.9022606455       23.7699258436
  O         2.0014758573       21.3513802673       19.1295279813
  O        24.6247998906        3.5702690787       11.6786180092
  O         6.9125586973        5.9392398642        0.2759523931
  O         8.5135869294        6.1421307044        9.2153759939
  O         0.4815798663       11.2801373576       13.2097131247
  O        15.0384303949       18.9639508884        9.2439573025
  O        16.2748079770       21.1084960643        6.0387738849
  O         7.3575831256        1.4715693026       22.6690011390
  O        19.0288140474        5.2776718447        2.3807290076
  O        13.4141606687       20.5919956440        0.9866975550
  O        18.9144298698       17.3020084003        9.4669150814
  O         2.5637402471        0.6568700915       22.9324419782
  O        17.3422121325        0.1460383812       19.4358961855
  O        17.4711950262        7.3648972324       22.6316204506
  O         9.2164638596       21.1594639141       17.9393457729
  O        25.4163340627       20.6907547593        9.9335606609
  O        23.7780159980       22.7485677469       15.1576174217
  O         0.9031307749        8.1944258737       16.2873023061
  O        15.0685098460       23.3306220220        6.7248401891
  O         1.4388226501       12.2070061784       22.6337485125
  O         5.2221879461        9.6324010891       16.4665399507
  O        21.0813557705       16.3039437260       14.9974841454
  O         6.3169199268        7.3116511991       15.9075256143
  O        12.0869389239       20.4039466749        3.0330594452
  O         7.5525434946       23.6759756829       16.0422645178
  O        25.1980731465       20.4359331524       17.6955038503
  O         9.7257588534       16.8295839385       21.9053768521
  O         0.8144801738       13.1143277385       15.8148626572
  O        15.6912557070       12.2138412052        5.3401866334
  O        21.5626682478       25.3031992374       24.5565745043
  O        14.9966225688        3.4111245154       12.1386402559
  O        15.6549857547        6.0091283565        9.7145211528
  O        17.6411305366       18.9796990786        4.6174632151
  O        23.5079096018        9.7713655483       19.7809211228
  O        21.7059777002        6.9330948865       15.0128226189
  O        17.7872248245        0.8491476802       25.0081225427
  O         2.1365919859       12.1140581118        7.2940455194
  O        25.1372323192       24.8238087294       14.2520347994
  O        17.5572623929       19.3375971404        8.1108118294
  O        12.7064272636        2.8175430960       11.0705433455
  O        20.6108385579       14.2973283652        4.1448857166
  O        24.5894443209        0.7706439646        6.3719763822
  O        18.3426701093       16.4278645231        4.0429663920
  O         9.3169989004        3.6475364371       16.3359366878
  O         2.3277670864       12.9010782308       20.0948630982
  O         0.9341421833       -0.3777700166        0.2777024910
  O         3.5073714608        3.5795546344        2.7960337410
  O        12.8250619253        8.1635064328       21.3219530882
  O         2.6961441055        9.3567607486       15.4082156983
  O         4.1124592950        1.6178232539        1.1814266702
  O         4.7968687059        5.1692760451       16.1402220411
  O         6.5462770387       19.6615793650       10.2857051808
  O        20.6737075995        0.6293600765       20.0739982439
  O         4.9743560591        4.3768629845       25.2355664342
  O         5.6925180058        7.8715663558       18.4730094506
  O        13.5459532461        1.3993047753       13.1895204367
  O         2.2753447744        3.0340874495       21.5474624053
  O        19.2894910514       21.4880409223        4.0764239064
  O        21.3587391951       17.8120676770        0.8275427666
  O         0.6952653658       10.7349294424       20.6039885159
  O        16.9201072719       11.8827798954       23.3790204454
  O        21.2084767017       10.5794664009        2.5397206863
  O        11.1940340193        3.2593867328       18.0445824103
  O        22.8766494239       10.4871955291        0.4853580127
  O         9.4921648265        2.6405962991       14.0287417211
  O        24.2126864758        7.9153218454        6.2430847625
  O        21.2396332084       20.1108675903        8.6413739873
  O         6.3603657407       13.3763556448        4.5437892729
  O        18.4812857148        5.4271120303       15.4749921294
  O        16.3298326631        2.5226961716       16.9578245115
  O        19.9874799881       24.2789713656       12.1998612375
  O        22.7354974666        9.7038968767        4.5618797173
  O        18.0777775942        0.7731048618        2.4798550331
  O        20.7421882956        6.7295212619        8.2768888542
  O         8.8148780212        1.0916324730       24.8842405689
  O        22.4673393189       24.9513226063       14.2262565674
  O        12.7021677306       15.4302720603       23.7325069155
  O        23.6867483679       19.5686942953       19.7287599684
  O         2.5301144816       15.9011483297        7.0431020289
  O         1.0639782990       11.2439406995        1.0747994448
  O        14.1854620213       22.2365652044        3.0036293102
  O         5.5763711329       12.0179058847       23.7978809849
  O        21.9680579581       22.7029730873       24.1586753491
  O        14.4036040342       12.8473006665        2.9735099861
  O        24.0391697494        2.0050982076       17.8203188662
  O        24.3384377976       19.2334037804        0.9568572809
  O        14.6141711596        0.9736265115       10.8426548216
  O         6.7998768784       15.7032701967        5.6807978603
  O        19.3055924934       25.2273077167       17.8008321054
  O        15.5632529604        1.8449106986       19.5648645101
  O         4.3892525991       23.8443362255        4.4353943685
  O        16.9762492148       19.7382349037       22.8870716717
  O        21.1254640019        1.7603128434        8.4318392304
  O        13.3662484187        5.6981087905       20.2659148893
  O         6.3103997931       17.6221467842       20.4318431311
  O        16.1175093780       23.4242464352        4.2499945833
  O         4.6896802936       21.8163822424        0.8490183350
  O        20.1315326101        1.6867304869        0.9586869296
  O         5.7202246179       10.7871333438       19.8078141316
  O        21.7457841144        0.7415055388       17.6435996547
  O         2.2460818260        1.8116140803        9.5988600246
  O         1.1266943752       17.6159834537        2.7299585780
  O        22.6176730851       17.8505585202       13.1301580972
  O         2.2445791802        6.6678883662       18.0944964990
  O         4.7698252653       19.5086583905       19.5039789641
  O        10.5255917772       14.3220475241        2.4130852607
  O        13.8880407752        6.9227185246       23.5263465125
  O         3.0538192946       21.7730060710       13.1756241643
  O        15.4132987994        4.6784355722       21.4486148503
  O         3.8571527255       14.0703842506        8.4843870891
  O        17.4077473731        6.4737571043       17.7275454149
  O         8.5221086904       19.8240304654        8.2134092561
  O        23.4191287473        8.5847232992       10.9579878998
  O        10.3503759267       20.9490128311       14.7358454683
  O         3.0523866268        9.9100242310        5.4428088922
  O        22.1761417232        2.6474052285       10.7083399622
  O         2.1713732363       15.6549247734        4.5390331354
  O        17.6093077230       24.2854194082       13.4093141788
  O        10.0308492933       24.4329506391        1.1845717142
  O        23.0924246534        2.2692737880       13.1295388859
  O         9.9569423594       16.3228708175        4.2390719189
  O         1.0934203116       13.8041000452       13.1945385094
  O        22.6527584214        6.1254873772       10.0171709899
  O        17.1184500721       20.3339931295       10.5488686706
  O         2.1473336079       20.4535634026       16.6109296168
  O         5.7568091707        2.3619778882       10.4799296520
  O        20.1865464635        9.1248316302        4.6062117287
  O        22.9976779941       16.3005663075        8.2691194556
  O        17.9777481231        3.1170068570        1.1845676729
  O         1.4905046628        1.8528156745        2.2543569155
  O         2.1084123996       18.4447143682        4.9598549837
  O         8.7470002687       19.0198266693       22.8144576124
  O        15.1209893291       16.0548958582       23.8709703794
  O         4.5807397709        2.5479223408       16.6610629900
  O        20.2186432772       21.0100121596       19.1831414559
  O        23.8671958688       14.0923791683       17.5718647968
  O        22.2573516610        8.7579272118       21.9623758260
  O         0.7379995131       13.9943417585        6.2483129577
  O        15.5551761593       22.1074698396       21.6391888169
  O         6.5386246335       12.3469431191        9.7191417867
  O        16.7627359584       16.1248511655        0.7693566382
  O         8.2636047040        1.1897829196        9.7101311990
  O        23.4179321003       24.6425490275        8.9331670979
  O        20.1412509440       13.2436154419       20.2973323317
  O         6.5203214644       19.9602231323       21.6129338691
  O        21.4500414751        4.2795791045        8.5357683913
  O         6.8943712164        0.6848100410        6.2415464941
  O        18.1075807732        6.2182838649       20.3185750460
  O         3.3647036501       16.5692685071        9.3162105156
  O         5.0541626927       12.1638942594        6.7030356842
  O         5.7759408282       22.0482508662        5.7040579137
  O        24.0149263600       24.9558113986       16.5976260816
  O        16.1392989901       18.4903794672       -0.1609538037
  O        11.7397703872        0.6183256354       21.8035742323
  O        16.5863175235       14.1800044982        3.5588508822
  O         7.2860521974       24.6635305194       11.5651725114
  O         8.5814871478        6.1796618218       21.8604623715
  O        10.8211186222        5.2560008071        1.8636721247
  O        23.4821003158       24.7113459006       19.1486686301
  O         2.2424020320       16.2563479826       19.9990483081
  O         4.9989808851        1.9026896722       21.6043981330
  O        10.7611006198       19.0973983718       18.6828990960
  O        25.0204853692       19.8204889980        7.3975260050
  O         5.8473420831       24.4055752859       17.9567181683
  O        19.8064058958       18.3380487361        7.3386566708
  O        24.3397968203       13.4543762217       23.1865144799
  O        25.7665706616       15.6457023129       14.8660831906
  O        16.9755230814        8.4723204576        0.1795223155
  O         5.8768184218        9.7881763325        9.2894919076
  O        10.2990788347       19.1890858104        1.4109441584
  O         8.5587077927       21.4516224603       10.3551867934
  O         0.4290607453       21.1949746388       21.1324865543
  O         4.0979558901       24.6338322978       24.6710596672
  O        17.4952527170       16.8742136139        7.1975731478
  O        18.0457179060        1.3967074389        9.5835949445
  O         7.4133596776       10.0994219043       24.1049457373
  O         4.6029727074       15.8029737244       22.8035117075
  O         3.8104000011        7.2817968210       14.8073971735
  O         3.2599100488       24.2801451379       18.0610234673
  O         8.3990197661       22.8283848294        5.5728757197
  O         6.8932917182        4.4540552942       20.6683035529
  O        20.3494078492        1.5265042383       22.5096160355
  O        13.1649993837        0.1056848111       15.3681377362
  O         1.2390175173       22.0710375013        7.8835453699
  O         0.9898996994       25.2006342946       18.6826601784
  O        18.1109291949        6.4135840993        8.6458011255
  O        20.1090024498       14.8317907327        0.4158619138
  O        24.9746564644        3.2499951984       20.9777201682
  O        22.1119304331       24.6652699112       22.1714576350
  O         6.2593211373        4.9809385290       10.0579670560
  O        22.2356710310        4.5880316483       13.7532851382
  O         6.7588965635        3.8283858102       12.3839225512
  O        14.9979428766       17.6764537268        2.0662067599
  O         3.5306685322        9.7116838990        2.5111725453
  O         5.2545897422       16.0905271849        7.3967153350
  O        21.5839042386       22.7784750615       13.1918606511
  O         1.7184914174       23.4104071864       23.5615664660
  O        21.9776529137       18.6793780328       10.6670305467
  O         9.4606344032        2.5284024920        6.0496512647
  O        20.8522525500       11.6397141361        5.1007427846
  O        19.1655851348       13.0149952384       23.8875494436
  O         7.3390412843        4.6460860903        2.4636023028
  O        20.8010472683       12.1248894872        0.3566988108
  O        19.1506824963       22.5788040159        6.7162197594
  O        16.8688809779        2.4353708901       22.3484680097
  O        12.7082602895        0.9967952833       17.7426672479
  O         9.6146227674       23.9151065899       19.4500534768
  O         0.6320560632       21.2478022571       14.2753083403
  O         7.3933121372        3.3381262535       24.5828035000
  O        13.5936557374       13.2410663014       22.4360330200
  O        22.5409527297       16.2722343162       18.7627752846
  O        22.1065178034       21.3061199769       10.9290743063
  O        12.5921428706        2.2995875457       20.0694966495
  O        23.7049100901       21.9775833102        8.4687858488
  O        22.9822995186       23.6275810518        6.5127152657
  O        23.4141271906       15.7887943505       22.8907532404
  O         2.0662945842        8.9642638493        8.0376404762
  O         2.6467859279       23.3084806468        1.9036964848
  O        18.0564199854        3.7428857287        4.8320596151
  O        14.3931608269       21.8547060897       19.4106915886
  O         1.3833424053        0.8919383594        4.6643670880
  O        10.9889679561       21.4991377741       20.0452435406
  O        22.0537052784       15.8693031262        5.9068084948
  O        20.7324878411        4.7358134511        4.8399474214
  O        17.8117582064        4.7609674808       22.5653529622
  O        19.3733098899       18.5724055503       18.6673636722
  O         6.3188098730       17.7789484396        4.4310312594
  O         3.6885348124       17.3686837551        3.1346869543
  O        23.9561183222       21.7584350373       12.5565905437
  O         4.5115262605       21.1360331879       23.4724953793
  O         5.0858504709       10.9898891103       11.4437054101
  O         9.5893887640       16.6861001526        1.6325181194
  O         5.7905016144        5.7455587179       13.8506214659
  O         3.1075379269       22.5102948236        6.1354919910
  O        12.3140492625        7.4326427859       18.7231794349
  O        23.1936095450       20.6141713512       21.9745531437
  O        11.7424976500       17.7352603928        5.7733044548
  O        17.5859259251       18.2267488021        2.1382972897
  O        22.6307811315       21.2069691168        1.1482424054
  O         6.5610515040       23.0319665639       22.2346236923
  O        25.2330081775       11.1258010141       18.0710684668
  O         4.3252991361       17.5841219339        5.7614276819
  O        19.1625469293        4.9848232625        6.8939394815
  O        21.0428344030       21.2526881828       15.6513642922
  O         6.2203732108        7.3028913737        8.9468913135
  O         4.0172258145       11.6423488356        8.7950814097
  O        17.9119025737        8.6094929497       19.2239579673
  O        10.2819319892       17.7947856864       24.3983465298
  O         6.5697256184       21.6014012848        8.4322353404
  O         7.9825461359       18.4049895199        0.4428952396
  O        25.0959612707        9.7989069567        9.1261788653
  O         2.6335670987        5.2794713121        9.6156433191
  O        21.5944799401       23.1405765332       19.9834206577
  O        17.9149272849       22.8313962856       22.8374181303
  O         3.2156085232       24.1012517966       11.6247692096
  O        18.8627594892       13.2623469466        5.7998273046
  O        22.3630981597       12.5259554410       19.0868767976
  O        13.4704443149       23.5207698681       17.4142948448
  O        17.2002748549       17.6493547535       21.1486532042
  O        24.8369782528       15.1287981968       19.7244330125
  O        16.6560979649       22.6268738870        1.7789827467
  O        23.8782126435       23.1502386713       21.3122469302
  O        13.5894391594       17.8861882042       22.7994586106
  O         4.3101481277       18.8587347259       22.0011303735
  O        11.7340053406        2.9166042360        1.5388376269
  O         1.0723650588       22.8880340542       17.1950857451
  O        22.4417852729       19.0433816594        2.9880233701
  O         4.1409502398        6.0373499038       19.8871393837
  O        21.2105561711       19.1831512890       20.5867654228
  O         9.4999471918       14.5283127737       23.3891273382
  O         0.6624470718        8.7831101604       18.9378431237