  1069
 i =    10000, time =    20000.000, E =    -19475.9752638909
  O        10.1392648445        6.4027996809       13.6883596015
  O        23.0579810087       21.5132022205        2.7000506711
  O        20.3391458000       11.6267989217       17.8789940570
  O        10.2233389286       22.6131626048       25.0808725174
  O         7.9831518546        5.5286092428       16.9697975966
  O        23.7601296910       19.2635019008        2.1931345776
  O        23.4605184133        3.0059570879       18.5377029809
  O         4.1870116838       12.9494786490       22.4942166313
  O        22.5019348401        4.9716512391       17.1114846568
  O        10.3979007598        6.1852631946       20.1456763553
  O        19.0126096008       22.2796082023        7.3449059405
  O        10.0729905636       13.5847441063       22.8761543646
  O         6.2577839028       15.1267153210       18.4106729782
  O        22.1602526492       17.7469419944       26.0167575956
  O        20.1880529774       16.2340299017        1.1870519885
  O        10.5409957970       16.6623187116        5.4727448052
  O        22.4987872761        7.1136160309        6.6200582520
  O         2.5745225725        6.9712193446       17.3834991069
  O        23.8803432912       12.5499051108        6.3604064193
  O        11.1525279726       23.4592842151        2.1235908839
  O         9.4315519100       19.7701731099       18.8517180899
  O        15.6054190875        6.1035645897       11.6945203379
  O        14.2135332368       19.5629303603        2.4913338189
  O        20.8965293050        5.0213925847        6.9195031591
  O        10.5709520424       23.8279326335       19.7781584960
  O         5.2562529024       12.3914257415        3.7956304662
  O         2.2889972749        4.8284148157       25.1330210176
  O        11.3463267479        5.0805236928       17.7915601135
  O        19.5027388681       20.6716506825       12.1638413706
  O        15.7436780931       21.3652798887       19.5213421890
  O         8.1009314549        3.7912224548       23.5436387153
  O        12.7859244499        2.0372850309       12.3818060542
  O         5.4055620480       22.7970766407       15.1857819260
  O         6.3061154969        3.6777823026       21.9096489526
  O        22.6954123213        1.9589905939       11.3711108383
  O        22.5950475936        3.6463668080        9.5282730787
  O        24.4994521999        5.9508559712        4.8790712625
  O        19.9394871868        7.8769620506       24.6660982950
  O         0.2183603451        7.4148063313        7.6784958716
  O        23.3200015523        2.1588060410        7.5440307308
  O        17.1575159586       21.7560715387       12.3809661273
  O         4.3488149997        2.2082216578        7.0924598740
  O         9.8587846851       12.5616228731        3.2267849040
  O        24.5102111551       20.1772956517       21.1386924713
  O         2.6097849880        3.2266788075        8.8892788954
  O         5.0825927303        0.9560431432        1.5013301363
  O        20.6777047103       21.7513325329        3.7969328592
  O         7.2390369056       21.2089668633        5.7282309039
  O        10.7111401021       23.4169344950       10.4328573877
  O        -0.2617769250        9.0165026798       17.4300632750
  O        17.5425536745        7.7893268908        3.5042866504
  O        21.5403539028       21.1581279480       17.6305833438
  O         9.1275139341       18.8712696334        6.0691141412
  O        24.0252183277       13.0728298792       11.5837557587
  O         5.2850994194        5.9349211441       19.4478441714
  O        17.3488731100        9.8314606563        5.1972036073
  O        12.0997446517       12.7806799390        1.6811489598
  O         5.1965890361        8.0222112008       23.3524736380
  O        15.8627550404       24.5584766667       15.4729850138
  O        23.2624566866       13.6887330764       23.9837570961
  O         1.3259298690        4.5957973938       11.1752571120
  O        18.3340889533       20.3403400049        3.4442618452
  O        24.5387948591       22.7195680657       22.2412161742
  O        23.1385857743       11.7915755476        3.8743966795
  O         9.0560874316       24.8526386244       13.5703627901
  O        22.3531171296       25.5899528797       15.4882753367
  O        22.5471332941        3.6051022235       24.5296534680
  O         9.1152413953        4.4857626643       12.0136494352
  O        11.7724278126        5.9772790637       24.9926658489
  O        18.4597280783       24.9070339275        7.0992588913
  O         2.4343418155       21.2365709066        4.1884751098
  O         1.8591495325       20.4016474931       24.2626866731
  O         8.7317590150       15.7204494695        3.8351650783
  O         9.4346667501        9.8500541687        1.7169881661
  O         3.2947162246       15.9676095242       12.8249290303
  O        14.6809402634       25.6309025062       13.3222615487
  O         2.9658857326       24.1802066977       15.3331573747
  O        15.5722138118        2.9479141433        4.6253081133
  O        25.2786316066        3.4666371066        3.0187955227
  O        12.7096781033        2.9066336284       18.5341850067
  O        14.6626120094        1.0686658820       10.6867392209
  O        23.1436704835        7.4931989981       16.4103059944
  O        22.8659928129        1.8856684100       20.8138773786
  O         5.8585395447        5.4067386039        5.3483479706
  O        22.6830663394       23.6031653240        4.3649179796
  O         3.8204527216       15.5916764458       22.2059595108
  O        21.3933972211        1.5209664471       26.0651300491
  O        10.1836577554       15.8346900727       24.4497581221
  O        12.7205257996       23.6248536219       25.2979090951
  O         1.0061165184       15.6519153633       20.1977354883
  O        12.9550044152       20.7783383732        4.2861452742
  O        13.8673181546       25.9299661817        7.9010823043
  O        22.5440952772        7.6312991774        4.0855113124
  O         1.6694876455        4.7295986600       15.9481691293
  O        17.0921170125       22.1935879942       16.0524612392
  O        13.7821803259       11.2029477175        3.1786871810
  O        17.6417291502       22.9037202398        5.1610022111
  O        24.4431198719       15.4942919948       10.2455098369
  O        23.5581791382       23.6298118679       24.3935207872
  O         4.4788301923        5.1484828497       13.1038839098
  O        16.4332816206       22.9692357471        7.4827569737
  O        15.1604693062       22.8118395213       13.6706342459
  O        20.3860771589       22.5970388658       24.2285484113
  O        14.8017194368        0.2275259432        4.3151192975
  O        14.8400717294        4.6660724663        7.5115700892
  O         8.8421325277       22.0960917767        2.5752216598
  O         2.6490590854       18.7096335564        0.8133407150
  O        23.5336201259       22.3828901863       19.7084497129
  O        10.5605826993       18.5219114383       23.8218777403
  O        20.2511485835       18.0579245237       12.0429048432
  O        11.4319650099        1.3599931441        6.9586483869
  O         3.8774459519       21.1438497983        0.7321329076
  O         8.5653149947       14.1865877786       17.4084445667
  O        24.0677481099       22.9188435923        6.6107586704
  O        10.5061228276        0.8600840558       21.8663686473
  O        19.4404300909        5.7086801392       10.5412293647
  O        21.7026718266        9.1267445698       13.4496770546
  O        21.4339684585       16.3992971107       19.9389708741
  O         7.0812490516        7.7890559038        7.5664080745
  O        17.0994497924        5.1939339932        2.8368670211
  O         0.2394000450       10.5482405597       25.3514811662
  O        18.5706249485        6.6986566143       22.7685562974
  O         3.2260005238       19.4383855185       18.6698292872
  O         6.2216495776        2.3507086299       24.8676552846
  O         1.0971063558        2.2421777360       10.6136909502
  O         5.4825415890        0.4997375279        8.9208014507
  O         5.7040366203        0.1977171851       11.5898635093
  O        25.3386302972       13.5163720753       16.6136878826
  O         0.4663021015        5.8958998056       13.1777405185
  O        19.8285946376       25.7858839095       18.3176894223
  O        14.7156711736       15.9808501460       22.1587398098
  O        15.4626229223       22.8280731943       25.2177415977
  O        14.2890303922       15.6807203459       24.7812165661
  O         4.0826057010       25.4633860646       19.2130674761
  O        23.8020128676       16.9748128532        6.9279249811
  O         2.5231782725       17.4123088091       17.0955653880
  O        11.2179486689       19.2069560015        1.1045268768
  O         3.0616543662       24.7718057018       22.1527198190
  O        19.6383534149        2.0539709148        3.3379424094
  O        17.8565354031        3.2619775243       15.0058899687
  O        -0.1277372918        7.0168075653       10.4035164225
  O         9.2216105930       22.5644652492        6.8125614541
  O        19.0627182472        8.3463895038        6.7310399483
  O         0.2410042224       11.9451374119       13.4106329071
  O        17.5751360011        4.3600602591       23.4309240732
  O         7.9015496124        8.4044899757       16.5116932377
  O        24.1069237039       13.9719363410        2.9322451370
  O         6.6425453917        0.5308731237       14.1367551867
  O         8.2471523876        6.3329805472        4.5193997742
  O        17.2021357442        8.4530519424        8.8693001597
  O        12.0788177968       26.0468509082       19.8011400287
  O         1.2314321641        9.6596307081        6.6535962616
  O        19.8563496640        2.8448749429       24.1768352760
  O        23.3492969720        8.7584443816       11.4850888150
  O        22.8764654282       17.1023247241       17.8235458484
  O         9.5110023797       19.0326121242       21.4609711431
  O         0.7032757309       16.6903063186       12.2750226982
  O         3.5254629271        8.8905875204       25.3348996088
  O        15.8607289306        1.9565568876       21.4685187709
  O         5.0024225434       11.4289690418       11.6652164839
  O         9.7278660288        7.7266631304       24.5591867169
  O        21.2202408195        7.1467182172       18.1123670127
  O         1.7080167502        1.6897233610       20.2578109522
  O         2.1519346035       12.5881709152       15.1713635631
  O        15.7685791133       20.5880729997       23.6250620055
  O        21.9237060244       23.2348803182       22.2080748622
  O        17.4915984580        2.8982788233       25.6413762851
  O         2.2648553387        1.1339199549       17.6633873907
  O         7.8512683829        1.7327928263        3.6943713396
  O        22.6451703526       25.1150406209        6.5627972009
  O        19.6630141247        5.2965775867       19.0092530038
  O         4.8332359394       25.3397572805        3.8933422314
  O         1.9906177961       14.7589621106       16.8735539836
  O        14.5873414211       21.5267872043       11.3604450566
  O         7.7462500476       12.0534392447        4.7109048365
  O         0.2393119773        8.3899694161       12.8677030979
  O         9.7425785251       17.1627505127        1.3532583690
  O        18.5896438557        7.5444361833       17.6118136485
  O        16.0102516671       23.8756721297       11.3879431943
  O        19.5387146025        7.9326405012       19.9346835936
  O         6.7536870523       17.2980354316        3.4141246627
  O         3.3623736932       13.7085893302        8.3436668156
  O        22.5328672347       14.2535493465        4.8923444871
  O         5.4843986867       12.4781045418        7.3906393480
  O        13.2668439035       23.4632524056        9.3580466563
  O        22.8761670657        4.2201827589        2.3242237432
  O         7.5317856389       17.5569484969       18.2315904215
  O         5.1472409558        9.6705267691        8.0719356320
  O         1.3914726508        5.8018107933       22.6314861086
  O        23.9658501338        4.3777362917       11.8858390891
  O        11.0508070368        7.6694740197        1.5161900871
  O        24.8417146613       17.8602654950       25.5963680202
  O        14.4414973540       17.1823677971        1.5568706028
  O        11.9932607780        9.7047977196        2.7288787761
  O         6.2335180359       11.2896383304       21.4380730121
  O        10.9142418074        6.0808913201        4.6029297038
  O        21.5759681196       10.5937876170       15.6734615952
  O        18.7278785784        4.2991827787       12.6485107501
  O         5.2830401391       25.1658236270        6.4661267614
  O         2.7020360825        0.5789767680        2.5544207589
  O         6.1759485377       14.8515644126        3.9135315971
  O        21.4786457256       16.8559200877        5.8273933622
  O        14.9339462433        1.3364145866       19.0574706397
  O         7.7961862560       18.8199042272       23.5165383439
  O         3.2308135332        4.5846905776       18.1996007814
  O         8.1559727278       14.1848435629       24.7667902211
  O         7.8108748660        2.6789023061       18.4913173689
  O        22.5875506698       10.2168700068       18.2200612015
  O        15.6422052282        3.8151003618       10.4481869246
  O        11.6472716884        0.9802009834        4.3857088802
  O        23.9381612877        9.5618749297       15.0271169862
  O         4.5409147607       11.1487567856        0.6724657295
  O         4.0533941255        3.7956907133       20.6327261017
  O         8.7229920580        1.0061167518       15.7080727983
  O        24.1552301076        2.1844991835       23.2019436530
  O        23.7923803659        1.7804673220       13.8389546355
  O        24.6176751369       22.5427882761       10.2425268467
  O         2.8096240718       12.0753219248       12.7789015338
  O        21.3809201073        6.4878933315        1.1850661301
  O         2.1762327427       10.5365614686        1.6879140749
  O        23.7319628145       10.4393633088        2.0667186546
  O         7.8283205096       22.8580063905       23.8469412039
  O        13.7678588340        4.4336735665       12.5123176757
  O         6.4859175523       16.7893086944       20.5302250105
  O         8.2393423277       15.6912266495       22.5148961728
  O         4.6117603719        0.2996550708       24.2874060228
  O        24.9347007237       25.6740693088       11.9970479000
  O        10.4704840679        9.3137519676       22.5574205428
  O        15.4648926777       19.2271611232        9.1206618076
  O         2.0489380334        7.3402578177       20.5720059296
  O        14.0185424030        4.6007464399       21.0806981834
  O         4.3921841902       19.2760210632       14.4888620661
  O        15.8121933878       23.6223791431       18.0423131134
  O        10.5640952857        1.7663927505        2.1123497994
  O         2.9452036896       22.1097121723       18.8189860975
  O         9.2937437138        5.5115860844       22.5536445945
  O        19.5564683119        4.9256766015       16.0139379352
  O        20.9635240581        2.2732234329       14.1045310858
  O         3.0645327889       25.1442685733        7.8344976933
  O         6.5509234404       20.9799802443        3.1826044520
  O        16.8951286223       14.3008353018        4.5347521482
  O        21.0023019443        7.6456146173       11.3918016331
  O         6.1355380365       14.4896828342       21.5071658880
  O        13.9687217515       18.5532892374       21.3222215777
  O        24.6521883055        3.0287618243       25.8901592543
  O        19.7178872991       25.2901001963       10.4610629135
  O         4.2388395727        1.8763981977       22.2947540072
  O        24.6516389909       14.5799132333       21.9977229316
  O         9.3976561819        7.7022799561        6.3042015017
  O        22.7725693465       10.2775034966       22.0355077626
  O        10.3958270935       18.5935654260        3.6203533246
  O         8.4659956199       14.9382335349       20.0108768336
  O         8.5806523353       19.5947650311        1.7851416079
  O        16.5663814474       18.3944905432        2.7155697996
  O        19.0293538510        2.0929993761        6.9438842498
  O        -0.0528582209       14.7255129177        6.7727002303
  O         0.2366772200       11.9928410647        2.2889569862
  O        19.2956892319        3.0279774730       10.3370872112
  O        18.5917320323        2.6025886109       17.4133275586
  O        22.3509119871       22.5730987988       13.4817943673
  O         7.2023506751       12.8481743878       19.4701579470
  O        22.6247385996       15.2459981352        0.4548275797
  O         2.8177474573       21.2464646649        6.7538957713
  O         7.3041588445       24.1793721740       26.1913789974
  O         6.6328066537       24.9531005949       19.4917548162
  O        17.2988412443       23.3766585359       20.3491004138
  O        19.1141702102       13.0754079423       19.5513314655
  O         1.4396028622       15.9298993256        2.3450649272
  O        21.6765750634        1.0529411317       23.3197550083
  O        24.4267196950        5.2212134023       24.0697280177
  O        14.7168964858       23.7975303968       20.3779808728
  O        13.8729497630       13.7989943771        3.1622028840
  O         7.5048542170       20.6126118045       20.5241164772
  O        21.3956522431       22.6940968273        6.3465622333
  O        16.3299499908       16.8727940694        6.8498049443
  O        16.2134306785       16.5732378372       18.1351168648
  O         7.0800105101       21.6973380939       16.9494339832
  O        -0.8042499317       13.2156472284        8.9168001284
  O        22.4165928603       16.0912177172        2.8529854331
  O        18.9415696616       24.8996545984        3.8417373884
  O        13.7911083680        4.6818469758        0.9272147966
  O         0.6913905926       22.9367605050        3.2539920969
  O         6.6836748996       22.9129617419        7.6717638516
  O         2.5829310528       18.9264451579        5.5388712190
  O         6.6109910198        5.3617349118       14.6829928108
  O         4.2458938791       13.9889729028        5.5777038193
  O        21.7015118176       19.9585279251       13.1964492128
  O         5.4012470858       15.2329787906        7.6592387275
  O        21.2407220256        4.1483511096       11.8260143826
  O        16.8426099241        1.2197237074        8.3924949242
  O        -0.0607306670       20.3533831610        3.9379531540
  O        -0.5262144406        5.5853709366        1.3965272897
  O        21.4322033868       19.7107794747       10.4830498159
  O        14.3790545134       24.5143538591        1.7760448371
  O        20.8335741753       21.4783899365       15.2156877225
  O        19.3954698013       15.5220937476        4.3435262884
  O        13.2417113654        9.2027836012       22.7390233374
  O        13.8651185966       21.8965235138        1.7477264451
  O        19.2974059137       23.7924831813       22.0200318105
  O         4.1911049235        5.5973831815       15.7901483677
  O        -0.1475503552        3.4255097919        8.8915382914
  O        18.9335319108       17.1541457553        6.3566813710
  O        23.5580067616        6.5138591581       19.0524757959
  O         9.9128064498        8.3580453378        3.7907899663
  O         0.3540971039        9.6049439710       10.6165661748
  O         3.3739101796       10.9676104135        6.6411076183
  O        19.7309029057       15.1343520806        9.5305502510
  O         0.3880076791        3.4250492694       13.5345614857
  O         1.1560148299       14.3419753474       13.5496841029
  O         4.9646568615        5.0401377410       25.5389753673
  O        12.5041033770        7.0385946909       18.6895434806
  O        21.5209560229       23.5300600756        1.9413326854
  O        23.0097668767       12.5378130112        1.0745974840
  O        14.2998653558       22.7940421564        3.9340364563
  O         0.8334153297        6.8251472154       24.9963302484
  O        21.3193997888       23.2441716916       11.2762515394
  O        10.3185820171        3.9358979598        8.7527736179
  O        16.0727946578        7.1485144355       26.6677941147
  O        10.2641472989       23.3670659713       22.5784946371
  O        16.6833014839        0.8705151471        5.8495889195
  O         4.8705049879        8.2886158806       18.3705963165
  O         6.3717555648        2.5454079750       10.5769576097
  O         5.4208562066       23.9178733154       17.4769698946
  O        19.5768651358        7.8087082293        9.1626177039
  O        17.9831019638       24.6857737839       16.9402819042
  O         3.6183076681       17.4863128574       24.0743784041
  O        13.9350111214       20.2534951350        6.8514131673
  O         5.2440104105        7.4791280529        9.4572749222
  O        24.4578648239        4.1385364845       20.9242514158
  O        17.0883573343        1.4383892017        3.2557789217
  O        23.3848202641       17.5697329708       15.0998326853
  O        12.5199862030        5.4054297272        8.5270938609
  O        15.5443606628        9.5108936221        3.2231018245
  O        21.4376558639       12.0568187717        5.7084375530
  O        15.4923619032        5.6215549364       19.0111512441
  O        12.4752702753        4.4776519877        6.1333460369
  O        17.6933114121        1.2171120668       19.6743692330
  O        20.8015794371       13.4164228351       25.1834875637
  O        18.1178521437       19.2341760309       24.0183154597
  O        24.3902405005       15.9733542678        4.5207263521
  O         1.5944442769        7.1432908256        2.4316163579
  O         3.0860415099        6.1773320998        5.1220399320
  O        21.1411366329       20.8302827663        8.0674190590
  O         3.4205131164       18.6811425963       11.0964956668
  O        19.8505157312       14.8714015381       21.4237588790
  O        20.4146139223        8.8662819387        1.7249497612
  O         1.8254900811       12.7637771613       25.4783203376
  O        18.0258037462       15.5802945470       19.6184064175
  O        16.0143265367       19.1018915724       25.6555430914
  O        19.3461745425        9.0308095373       22.2585278940
  O         5.5912706591        3.6119775636       18.3916666963
  O        11.4790081082        4.2947331816       21.7660820455
  O         5.9444151652       15.7240547382       24.6406537748
  O         0.1204175990       20.3171321168       11.2756437719
  O        17.9261439381        1.6428526437       12.8487412318
  O         9.2574273991       24.7796904099        3.2116229327
  O         3.2061751707       21.8902551385        9.3783515297
  O         0.9973251984       12.3420691117        7.1478131617
  O         1.9841026772        3.2684304487        6.2213294381
  O        13.6984908048        1.0463461978       16.7433085544
  O         2.5720692925        8.2433257510       22.9445150724
  O         2.4610240941       11.8344858475       20.2276268099
  O        15.9334550114        9.0165812614       24.7189392472
  O        11.4761423810       14.9817233886        3.9400345730
  O        19.9648080298        9.7705983860        4.5562079619
  O        22.6017374364       12.9191684469       21.5723500973
  O        18.5392519399       13.2075565451       23.8329840599
  O        17.4629852487       13.6487040851       21.4010331273
  O         8.3863863070        1.6582045049       20.6173268596
  O        11.3747514422        0.4985454427       15.7087572922
  O         9.8844664528        7.3050936282       17.8552750545
  O        14.3756699178        7.2637649652       20.7180144670
  O         7.8920110227        8.5640491571       22.6004466448
  O         0.1038474349       25.5647987062        9.2988722709
  O         0.7270369865       22.5351034733       17.6231921579
  O         3.0153166969       16.8441278500        4.1088278686
  O         3.6400892644       14.5358903599        3.1324500836
  O        18.1561547116       18.2849144948       19.1099770461
  O        23.4628723017       20.6194961832       15.1568858815
  O         8.1077380921       20.6772483916        8.2696839494
  O        10.2252112278       11.1468647888        5.3015306536
  O         4.1815047938        1.4157457872       13.5987908000
  O         2.6627585969       23.2473277614       24.9960011806
  O        12.5758810045       24.9054429692       11.6575080379
  O         1.5656092398       16.6009729244       14.8214687870
  O        12.4041225129       24.2633440208       17.7345181224
  O        14.4122094765        6.8824162832       24.6643207153
  O        10.6878360812        2.7485200853       16.8024665120
  O         5.4309469790       18.6203144747       25.7350270311
  O        11.2912087825       24.2442770260        6.1829299564
  O        11.6437190365       25.6622977751        9.3107643926
  O        16.9628606178       18.8762652546        5.2585552643
  O        12.9153234885       18.0439420863       24.8439944686
  O         8.9240832950        4.1722035482       14.6598280894
  O        12.0223520263        8.7857851845       20.5321601001
  O        -0.4505911585        1.0362030787        5.5519165849
  O        10.4235686031       25.1543199530       25.5081133356
  O         1.7266348119       19.9787296897       15.0716291081
  O        20.5483482549        5.0100951946        3.3250184161
  O        15.3809974237        1.1140793473       24.0714517450
  O        19.2656330767        4.6613456924       21.4283830120
  O         5.7588635182       25.1431042402       22.0455105190
  O         0.6718559330        3.6005052339       23.8167027479
  O        11.8514878441       21.7216299001        6.3274461203
  O         7.1874005202       10.2367133410       19.1985076101
  O        17.7644310518        1.7671229309       23.1271549454
  O         9.3091060688        0.6027570318        5.6108055686
  O        16.8623181678       25.0122136157       22.3522069356
  O        23.7136214315       15.2611578217       19.6287185412
  O        19.9997521860       20.7286752388        1.2666415012
  O         5.2940623134       22.8630586026       24.7158357354
  O        12.8819971693        2.2095904756       21.9945783859
  O        14.9894093480        3.3906708027       17.2789941726
  O         4.9832746433       17.3884744816       18.2994041750
  O         1.9977929265       10.7291090322        8.9285025215
  O         9.8485824984       12.1516683801        0.6675700949
  O        19.1957753148       13.6552771567        5.9449744472
  O        17.8230293371       20.3786136772       10.0432911462
  O        22.4342046847        1.8632374636        5.0012404636
  O         5.8440385462        8.0638049145       20.8037309425
  O        17.0997211983        4.7616400513       17.0343858597
  O        22.9025577459       11.2111828202       13.1813662387
  O        10.2661669284       14.5610750738        1.4598553679
  O        10.0585723628       21.4984897407       20.7012314791
  O         8.9551689564       10.2490571817       24.3720990173
  O         9.6100845085       13.8387164624        5.4006813598
  O         1.3754224546       17.1373820646        9.7248607270
  O         3.9332489271       16.5606738972        1.3508628086
  O         4.5419547137       24.0928938589       13.2006693477
  O        23.5015714791        9.2192589154       24.7866934380
  O        24.2804632301        9.8346506543        8.0584523707
  O        20.6590032490        4.0640396194        0.8656417111
  O         2.9562288555       17.0690948809       19.7267339890
  O         1.0103544872       11.4287138049       17.2072543937
  O        18.6193617790       22.6496561486        2.5099508305
  O         0.1095284570       13.1750175497       19.8085839343
  O         5.9399454453        7.5558282302        3.8977717626
  O        20.8804871823       13.1085345874        7.9255002863
  O        23.0563769041       19.8031242254       24.9790660937
  O         1.9458273015       17.4728990178       22.1299443484
  O         5.3599320135       22.9192714214        4.7433025185
  O        14.1282772633        9.2351643121       18.8259639527
  O         5.1097929966       20.6111803843       21.8115866074
  O         7.5835244729       24.0471875037       15.8899167934
  O         9.8950258008        4.0323782052        6.1279587767
  O        10.3734336932       22.5940850953        4.4812131009
  O         5.7969540842        1.1773818870       17.5440173081
  O         3.3788562423       21.8031069454       14.1499518319
  O         8.1940838640        1.0202765670       23.2968092039
  O        18.4278000655       25.5736468034        1.4342511304
  O        23.6980623618       25.1726904639       22.0053945375
  O        21.7319309572        4.3126373958       20.4679330029
  O         9.5104569616       20.8707463168       23.3666992661
  O        22.2096160066       14.0428312028        9.9161940642
  O         3.6510084117        8.9388903046       15.9866109513
  O        13.0054330320       25.0041561136       22.1060842261
  O        23.7394320238       13.3391009931       14.4521278963
  O         0.9099928459       17.0210932482        5.9242492179
  O        24.2656294924        3.1743098729       15.9524565938
  O         2.0842622984        8.0832263179        9.4941004534