426
 i =     9300, time =    18600.000, E =     -8405.8878972546
  O         8.1076856472       -0.2168548752       17.9780749829
  O        14.1495249715        1.0249072793        0.7773269864
  O         4.3939892042       13.8080008668        1.2662452421
  O         2.7033772146       16.4359663932       13.1142156025
  O        10.9607355744        3.6328809844       16.5320559128
  O        17.7568523805       15.3728576557        2.6201202593
  O        17.5880657382       11.9972509058       13.0203500185
  O        10.8861589701        1.1250129729       13.8670590795
  O        10.7918822490       13.4081384402       14.8599781676
  O        -0.6272764121        0.0014803790        1.7506610217
  O         2.6101055906        4.8582900435       12.4525226909
  O         8.6271429708       13.3734616710       16.3917000142
  O         4.2239896697       16.4102935275        5.5164421308
  O        13.3166675442       17.1659203508       16.4597363337
  O        18.1652354600        1.3364034263        9.6400984432
  O        16.6478645935       17.6149949527        4.0073962220
  O         5.5665035156       17.8400503884       14.8471983780
  O         4.3648583539        0.8492134700        2.4154624582
  O         1.9658129126        9.9412779392       -0.7825878681
  O         8.1665744556       14.9659212583        2.3702461657
  O         0.0294222111       17.7077618217        3.6120405255
  O         1.0040691380        6.8835269522        3.0863163764
  O         8.1559758998        2.5161715178       17.3642065176
  O        10.0415828982        1.0847851336        3.3892688856
  O        12.5828209490       16.2478450493        6.8923892053
  O         0.2342845947       15.3453132893        5.2014363037
  O         4.6095659713        0.4903914473       10.9806183332
  O        18.5553121650       18.3882528093       17.3006458821
  O        17.3332927953        4.0549771065       -1.7645760127
  O         6.2438919807        2.3518486510       12.2964181128
  O         3.1466647548        9.8998220039       15.5341315297
  O         6.8732177277       13.7686689631        0.3539956664
  O         1.6698456791        5.2308732876        1.1295205242
  O         4.1644545386        7.8255922566       16.9050616969
  O        15.5495892997       16.5315986785        8.5911422478
  O         1.3204937329       16.3990435773       15.4292240351
  O         4.7403389643        0.8403323020       15.9601360040
  O        15.3588854004       18.5902292748        6.1238582425
  O        14.5095816585        5.9339159106       16.6774781412
  O         1.5151096913        4.3028039519        3.6286138450
  O        14.5094078554        8.2892924947       -1.4268826730
  O        -0.7207334038       14.4130674020       12.7227139332
  O         1.7703708096        4.8143454219       -1.3853753468
  O         0.0334224942       11.9573051353        3.4591946581
  O         4.0243119278       -0.1351107784        0.0769771464
  O         0.4512039753        4.7421561702       10.9051566742
  O         9.8219998991        0.7443392289       16.3131567989
  O         4.1809633384       17.3165425824       11.0663593146
  O        16.3441045385       12.7939740984        4.5597881826
  O        12.6322235646       16.9613312482        2.0661233067
  O        16.9987519125       -0.8427594094        9.5531411464
  O        16.0560037917        4.5235698915        1.6049264180
  O         3.0677941942       16.7705569353       -0.2284802066
  O        -0.5188976946        5.5796906063       -0.3385995041
  O         3.8553590187       12.8580539841       15.7714698159
  O        13.5696956374       15.5202006999       11.7971883923
  O        17.8405086704        2.5379134719        1.0923310712
  O         5.7769235710        1.1701161802        7.9668895697
  O         2.0256540740       14.8753589674        1.5786448642
  O        18.6300087440        4.8217238066        2.4371977545
  O        12.0664573218        8.2287589430       16.7312627220
  O         8.0366318100       -0.2589781457        2.2926541465
  O         6.0888116410       18.3490992215        9.3997171486
  O        10.1666749870       10.9460411624       16.7480322094
  O         3.5300957752       -1.2453815906        7.5348288283
  O         0.0312255350       11.8179706415       -1.6091881599
  O        12.1893419768       17.5587015839        4.6178768198
  O         3.1314580623        3.7644618851       14.9715125995
  O         3.0571514851        2.2372968840        0.2694673933
  O        13.6414551527       13.5682992701        4.6416293146
  O        17.9157619931        2.8138333309        6.0414596668
  O        11.9841049466       15.1170759161        0.2577121788
  O        18.5069224003       -0.2505148183       11.7624034501
  O         5.6057850823       11.6693008363       -0.0331665684
  O         8.4957336660       -0.5115626480        4.8723299623
  O        16.0732122741        1.0248148640       11.3131754634
  O        14.2597521860       -0.0208993909       -1.6195959941
  O         5.7964071284       -0.9810441459        6.5117110912
  O        10.1264712474        1.4933116326       -0.4892306051
  O         3.9158414372       -0.2461053957        4.8188689589
  O        17.3272868091        5.8764179691       14.3252992831
  O        10.4281758943       18.0231482415        6.5800611198
  O         4.8221969469       13.8679512847       -1.3443988540
  O         2.2711433864       16.6502341783        3.9315006970
  O        13.3693730537        3.9989476696       -1.6505981005
  O         5.1320472514        6.8811342184       -0.2001288659
  O         5.7372000264        1.9055939282        0.3777029262
  O         1.2403672628        9.5987541739       13.2946742167
  O         8.0048826745       -0.6673341946        7.5101250405
  O         3.2620301553       14.8002534230       11.0971565933
  O         0.8767431982       17.1240090831        1.2185190681
  O         1.4516520955        8.2383035335       16.9010046995
  O         9.4774274539       14.1289196695        0.1419487644
  O        16.8341303764       11.2472539473        9.9539717432
  O        17.2372550893        1.6523245274       16.2592323881
  O         9.5618371698       15.7435312250       15.5769713936
  O        14.3548296371        1.7025867040        7.1347505472
  O        10.5438963528       18.0240222650       14.7867579301
  O         8.0188109730       17.5630386537       14.2521134765
  O         6.8326537741        7.2708182204       -2.3511700689
  O         3.6423832729       14.4479111629        3.6762035830
  O         9.8715325873       16.1660771925       12.8882359470
  O         1.8220415566       -0.5423384120       -1.6114407225
  O         3.5728707939        2.3888110276       12.6588988442
  O        15.3385598608        3.4670886805       15.8727955037
  O         3.0716365719       18.4564291166       14.6869748369
  O        17.0181050592        0.6594729858        4.7148356923
  O        16.9931568375       -0.6098176762       14.0427032303
  O         8.2067873635       11.0598714834       15.0178439766
  O        13.8861214085        6.0662344232       -0.1462633975
  O         4.6500522366        3.0965636197       10.2826762775
  O         0.2249990790       17.7012741604        8.6287815759
  O        12.7811854740       19.0192860943        6.5261904824
  O        11.4550244073        6.0919545721       -1.2054963914
  O        14.5531377359       -0.3115980452        8.6862304801
  O        16.6091408219       17.0402551503       15.9531463963
  O         7.7075493598       16.2368355253        0.0491956117
  O         0.4840473158       13.8760626276       15.9450366494
  O         5.1226850962       10.8589872983       16.6792625192
  O         1.5855187034       16.9490578324       10.7377230739
  O         4.8582726245       16.7190973501        2.8705045312
  O         1.2482018716        3.1710090701        6.0232707574
  O         1.5806314139        1.4261130060        9.5307655385
  O         8.1318596992        5.0391782534       16.2228274885
  O        14.9760094221        8.1495315692       13.5365503303
  O         1.2797727307        8.8368941130        4.9382480210
  O         5.9043828750        3.9099529360       17.0073664782
  O        10.8648634668       14.5524444841       17.3735677774
  O        15.5486711315       15.3763758909        4.1390820389
  O        17.7159407633       12.3543354707       15.7936695248
  O        -0.0667268285       10.7619239814        9.0425729376
  O        11.0619059492        6.1204132941       15.4059649948
  O         0.7317148024       18.4256127516       13.7248292851
  O        18.7307056396       12.9301970116       10.5941430841
  O         1.3915321771        7.4298323679       -0.1235884786
  O        18.4558204588        6.3995302976       16.6628657269
  O        -0.1097002882        3.0482277175        8.2161434105
  O         2.4527647238        7.5863358535       14.7259997951
  O        -0.6962417255        1.0503337140       13.9378702334
  O         0.8284219366       12.1561701337       12.6270426994
  O        14.2517537457       12.1902473115        0.2182467996
  O        10.2372273598       17.8350219480        3.0226984191
  O         1.2255543576        7.1051577656       12.4583675266
  O        -0.2976572645        1.1431233021       -0.6553826680
  O        18.6247515786       15.8113873367       16.7407221452
  O         0.0842973455        0.5216145524        7.3292539119
  O         7.0522811518        0.5996118453       14.1420230331
  O         8.7095961455        2.2532014492       12.8207653135
  O        18.2927791352       16.9261458716       13.0238772567
  O        16.5196463870        6.5736040634       -0.9613474068
  O        14.8663544723       -0.3192742615       15.2056332987
  O        13.4942838564       12.9371118874       17.1396331197
  O        15.5672258426        2.3405418174       -1.1203544815
  O        -0.2230464936        7.8872923657       14.6781185774
  O        17.2041733378        3.7379910262       12.8527081736
  O         1.0416149876       17.7632849620        6.0106239023
  O         2.6050317631       12.2656757901        2.6293569342
  O        12.9008698015       10.4094353902       -1.2279996693
  O        16.3088191273       15.5141435863       11.7128704439
  O         4.1730144695       17.7731374474       17.0906088955
  O        14.1106451251       16.6244087384       -0.2226268466
  O        11.6647429844       12.5526275008       -0.2345533978
  O         7.2537101040        3.1262387811       14.7658066021
  O         6.3036122399       18.2263296814       12.1755820045
  O        16.8718031769       12.2441603878        0.8362989792
  O         2.5671612627       14.7919570855       16.8871753368
  O        15.7628141667       16.7332553583        1.7149515661
  O         1.8649131786       -0.1379289108        2.7061052928
  O         0.2678572245        5.0863300968       13.6225633946
  O        14.8261480617       17.7046002730       10.9134413590
  O        16.6535352960        8.2248186400       15.5690189303
  O         7.7253979928       11.1082543809       17.6842920612
  O        16.1839512681       10.4907943345       14.4783244587
  O        16.7874725679       16.6787813161       -0.7712691085
  O         0.9556353440       11.8749139117        0.8325806269
  O        18.6013889062       15.9767237994       10.4844644378
  O        18.9715627961        5.2061966957        6.7989371913
  O        16.5796781439        0.3228194561        0.1103349516
  O        17.9151357101       -1.4399430634        6.3921838469
  O        17.9660264367       12.9512042080        8.0587995025
  O         0.8674500044       15.3928372856       -0.8315513091
  O         2.5638153889       12.5010544353       -1.1869965146
  O         5.3883456886       10.7585933720       14.2532181931
  O        11.1566687830       15.2809253889        3.4952248006
  O         5.9750053737        9.2966889601       -0.8130117010
  O         3.0838850640       11.7020260989       13.8431653830
  O        16.9561569107        3.0443095116        3.5995451403
  O        12.4164739382        0.2114056817       15.8577295779
  O        -0.9558774201        8.5929189396        3.3349988526
  O        15.7166442394       13.3191960573       14.5139810933
  O        14.7896966995       13.5244454485        2.3549486092
  O        13.0340382114        4.3477903769       15.0186349665
  O        11.1514202032        2.5408442613       11.7250421809
  O        18.7334157746        3.4836347510       15.1781150301
  O         9.4681173457        7.4572115608       17.0160263821
  O        10.5686423043        3.9021045673       13.8673483003
  O        15.0351685042       16.9647619048       13.5853450680
  O        11.5365964838       17.7712656212       -0.1400839817
  O        -0.6370223638        8.9813833495       -0.7049654533
  O        -0.0480950626        2.0130039057        3.9460063059
  O         4.9447011998        4.7207015913       13.2992864985
  O        14.2060234455        9.4594804690       15.7534267928
  O        15.7213277414       14.4749659933        0.0948256402
  O         0.3688207962        1.2567002405       16.3009878684
  O         1.0499496832       15.2567625717        8.7029820572
  O        12.0431630788        4.2219685606        0.6079417791
  O         0.7917142293       11.4510513610       15.2477214472
  O         8.3225784318        5.7755947195       -0.5808477614
  O         2.6346767438        1.9039057377        4.2483603835
  O         1.4607189476        9.8117513263        2.6274580098
 Na        10.4336949255       11.0713425557       14.3372005674
 Na        18.3796995035       13.8826990668        0.8111771181
 Na        14.1890997447        3.1439443236        1.0365433164
 Na        17.4011600226       10.7848929555       -0.6735957583
 Na        18.4622038780        6.9489673396        5.5702987603
 Na        11.5010687944        0.3821757944        1.1588149561
 Na         6.1474176758        4.7337967788       -0.0816181819
 Na        11.6333705401       14.6772203033       12.7365226372
 Na        -0.2962515832        5.9757893437        8.9916022131
 Na         0.6500381005       13.8790334194        6.8067159478
 Na        13.1145422589       10.2340025413        8.0640700383
 Na         5.1281790416        5.4296013215       15.5642104981
 Na        10.9093177542        3.2993927609        2.6437332183
 Na        13.9994298513        0.5890412060       10.9699880789
 Na        16.1064425975        1.6980646252       13.4714271327
 Na         0.4269791647        9.9293655924        6.8706540949
 Na         9.8173159218        3.8296335092       -0.7428452035
 Na         3.1014636917       14.1405653232       13.8733234466
 Na         7.9007817739        6.6663171638        7.4063980062
 Na        17.2756096321       15.0437526345        9.0933181427
 Na        -2.9076443144       10.0282350589       12.0825525394
 Na         9.0062622214        5.5056679986       14.0779715081
 Na         3.2113760810       15.6826685748        8.0083573277
 Na        15.7518487319        6.1244758535       12.4546349441
 Na         5.8006111516       17.6197974654        1.0631798374
 Na         3.0391904111       10.5043878137        4.2072978617
 Na         2.5100762218        3.8534248042       10.0696173065
 Na         1.0337873643        2.9773035527        0.0517134385
 Na        17.8506851234        7.7479793959        1.0691612465
 Na         1.5905512015       13.1585345178        9.9153240311
 Na         5.9015839626       10.1888892670        1.7614128375
 Na        14.0121068076       15.1147073434       16.9659008735
 Na        13.1163969573       15.8798062229        9.2598826126
 Na         6.5726833767       17.2040377518       17.3446297702
 Na         6.5150948347       -1.2834134459        4.0606500430
 Na        12.1530878519        1.8987817672       -1.7371151129
 Na         6.1233186887        1.1779329790       -1.6776834648
 Na         2.9033449431        7.2297386678        5.8161065395
 Na        14.8232644086       13.0987952585       10.7964789837
 Na         6.2112974163       14.5588714024        3.4289139332
 Na        14.9199853787       18.6695420781        2.4766670110
 Na         3.4103913026        7.0313887877        1.1537316794
 Na        -0.9328600499       13.8719817063        4.0105121027
 Na         2.5623900498        1.4186866958       14.9247508502
 Na         3.5564165559        0.3928909622        8.8992956905
 Na        13.5121179750       12.8347801559       14.9454757573
 Na        14.7891826938       16.1046032875        6.3335579398
 Na        16.5693751006        2.2951744104        7.9250495781
 Na         9.0194783112       -1.4622249928        0.3272792417
 Na         4.3556945303        2.1555591401        6.1346118094
 Na         7.6869683463        1.7592467457        1.5353356841
 Na         3.6608679975        3.0949532315       17.3284230735
 Na        18.2571929631        3.1177665934       11.0107301034
 Na        12.3771137795       13.6940010501        2.6548965706
 Na        10.9755745491       17.4262515064       -2.2516558656
 Na         6.9066178319        9.2782096571       15.4672483956
 Na         1.5436846527       -0.0196596270       11.3821694203
 Na        17.1492192942       10.8408570421        3.2411899174
 Na        17.4993110743       14.9250774390       14.9324148274
 Na         1.3457455058        5.1090507572       15.8191372100
 Si        -0.6106887699       12.8295851231       12.2387915709
 Si         3.2528408582       18.2172947745       -0.9673422275
 Si         5.3920999633       13.3020518836        0.0954478850
 Si        14.9188943636        6.7373524147       -1.2644393838
 Si         0.5881775913        8.5695173393        3.5675438036
 Si        11.5537260643       16.7792187961        3.2648790207
 Si         5.3664518467       18.4455167781       10.8505126987
 Si         1.3982667439       11.4628584682       -0.7150578229
 Si         0.7973030997       16.7626749438        4.7284342267
 Si         3.5114915293       13.4571084740       17.2213495545
 Si        14.9024121050       16.4031509082       12.0141860233
 Si        18.1556868416       11.9323367815        9.3295658804
 Si        17.9640567627        1.0030958677        0.6414773609
 Si         8.7186551869       11.6922757619       16.4282149020
 Si         6.4551469235       -0.3044002015        7.8436417637
 Si        15.6036119631       16.0958287886        0.2251537112
 Si         0.2403867181        1.5036732575        8.7078054245
 Si         0.3665326558        0.1298944964       -1.8029727930
 Si        17.8519075129        7.1498063939       15.2717734141
 Si         9.1996065649       -0.3122300724        3.2903569213
 Si        15.0927940832       13.7519749940        4.0015198947
 Si         5.4939178433        7.7738376609       -1.3772912086
 Si         4.2807749035        1.4917320009        0.8527983218
 Si        10.3108414997        2.4348943268       13.0837272552
 Si         4.8188012723        2.1000903633       11.5339891824
 Si         2.9383017354       16.3048235545       11.4692958781
 Si        16.5268575833       16.2323439470        3.0971092835
 Si         1.1451396322        5.8201384019       -0.3793117958
 Si        10.9600143694       14.0219771739       -0.4784909585
 Si         1.7099415190       15.9909314465        0.3534177957
 Si        13.1470426880       12.0358869147       -0.9818672214
 Si         0.8631870149        8.7467777421       -1.0459891827
 Si        17.7140769352        5.6272989551       -1.4532026159
 Si         8.0735984337       14.8462534645        0.7584961850
 Si         0.9683597831       15.2691554639       16.7546544450
 Si        17.6555389783       17.0011094600       17.1849962592
 Si         3.1848987819        0.4539760869        3.4938149072
 Si         6.7348645505       18.3735247863       13.7998675769
 Si        17.3336203313        0.3298318798       10.6920394112
 Si        13.7191971200       -0.6873982007       16.3220282097
 Si         3.0732886611       13.8054969732        2.2469057204
 Si        12.5751823077        5.0495404218       -0.6042758615
 Si         7.2743517668        2.0598837990       13.5745296475
 Si         3.7811611967       16.0928445335        3.9259486972
 Si         8.9989666560        1.1000215117       17.7633518580
 Si         8.2193912365        6.3877287104       -2.1114126652
 Si        12.0111763104       17.5736032154        6.2063934351
 Si        15.7849084208       17.8649022136       14.6825108751
 Si        16.8219593106       -0.8385115360        5.3317119067
 Si         1.3187942880        2.8390000329        4.4474244980
 Si         9.4949699009       16.8492541776       14.3130891331
 Si         4.4680086791       -0.6792579335       15.6493655407
 Si         7.3213442800        3.5749584372       16.3774448524
 Si        14.0312585697        4.4474626837       16.2355931500
 Si         8.7987359797       -1.4297202303        6.2614995313
 Si        17.9633234757       15.7410244471       12.0260540383
 Si        15.0666371460        0.8048557269       -0.4754067327
 Si        -0.1153201782       12.4094683618       16.2008563927
 Si         0.5099666685       18.3041918741        2.2308972063
 Si        15.4484445987        9.0119446473       14.8131333002
 Si        11.3545311049        4.4275775624       15.2649928160
 Si        17.8240038972        2.1155372406        4.5404759003
 Si        18.1861456716        4.4471434905       13.8683708587
 Si        15.5006584245       17.8953537404        9.3445194137
 Si         1.1248962979        5.4660921792       12.2003153566
 Si         1.5733319774       11.1449366607       13.7732187456
 Si        -0.2157486752        3.6546535475        6.6830075294
 Si        18.6087776272        1.8666417419       15.3025989150
 Si         1.1607525254        8.0634668571       13.8315853857
 Si         4.1744278250       11.1885043204       15.2086996473
 Si        16.3747873615        2.8899306768       16.9953556914
 Si         0.0297032713       -1.0810724494        7.0858017542
 Si        17.3817807418        3.8223078170        2.1414918092
 Si        14.2799032979        0.0783865163        7.0748478563
 Si         1.9092296577       17.3708868430       14.2700123717
 Si         4.2435896926       -1.3958775187        6.1265295237
 Si        10.0184613240       14.1956346679       15.9661772066
 Si         6.0452359763       10.8006147968       -1.4049076525
 Si        -0.8919109680       18.6725171102       13.3480387741
 Si         0.8404523730        5.3617065135        2.5940736230
 Si        12.5828934700       16.6777775000        0.4500582418
 Si         2.8899851193        8.4530310873       16.0742825311
 Si        16.7132741596       12.0717719765       14.4510317676
 Si        15.4715295721       13.0163563376        0.9492705455
 Si        10.8659286750        0.2128906229       15.2000173989
 Si         3.5817425486        3.9387430023       13.4760875115
 Si        11.0307196137        6.9165022679       16.7969296199
 Si        13.3511892042        9.1443647353       17.1273156069
 Si         1.1371819972       11.4665492904        2.4292881678
 Si         0.5208360244       16.4617210502        9.5642573450
 Se         8.0103684323        4.9886504737        9.7443667560
 Se         4.8201701788        7.7837129336        3.6332458271
 Se         5.1561952609        5.0211707190        6.5586924082
 Se        11.0346173158        7.2428403817       11.9486205628
 Se         8.0383014899        4.5264708545        2.3366979821
 Se        10.7181291600        1.6203967406        8.0581905508
 Se         3.6167203076       10.9888857233       10.6485024010
 Se         8.8309205524        7.8054358452        4.9083144240
 Se         2.2602991423        7.5683259809        8.7599196425
 Se         8.4978882617       11.3792213389       11.7223513495
 Se        12.0403070583        6.2273722168        3.0563466832
 Se        11.5098347604        5.5260048538        7.5712246900
 Se        14.0197437817        8.3702499839        9.6417410296
 Se         6.7203630736        7.6005864401       12.9272262054
 Se        13.4004531862        1.9502542583        3.9302633782
 Se        14.9397083345        3.8553424392       10.0932252297
 Se         6.4190791696       11.6720248951        4.4203165512
 Se         2.6226902200       11.8350020823        7.0512109838
 Se         6.2207139406       13.4491459884        8.4634863217
 Se         9.6868933735        9.3490456244        1.7004966794
 Se         6.3261229595        9.0131574765        7.8577849987
 Se         9.9442092815        9.9461578770        8.6978552720
 Se         6.1851410626       14.5378572428       12.8380420635
 Se        15.1576252543        8.7401522780        2.3018651875
 Se        12.4789742510        9.6179167258        5.3106304781
 Se        17.8230437656        7.7327086847       10.8032855492
 Se        12.7021989790       11.5011757948       12.3024155564
 Se        15.5230252244        5.9374081746        6.1382977325
 Se         7.7651290728       15.8783246836        6.1898631703
 Se        10.2240147131       14.4526480132        9.9823730047
 Se         9.8512182209       12.7026529381        5.8305272648
 Se        13.8914052811       12.9481989955        8.1866666776
 Se        16.8338514711        9.7857186524        6.4226316064
 Cd         6.5949539026        9.1706376357        5.1243398037
 Cd         6.1904217918        5.5132154639        4.1539255651
 Cd         6.1980391483        3.3018373502        8.3251964862
 Cd         6.2922157310        5.2772765422       11.6047604913
 Cd        11.2144294668        1.5516803054        5.4142877121
 Cd         9.9718921333        3.1790139948       10.0850228033
 Cd         0.7424789981        9.0216016348       10.1244058128
 Cd         9.9792335417        9.9387208952        5.9989571607
 Cd         3.7608661860        9.6012712463        8.1666474948
 Cd         5.0792572783        9.5786272237       12.2461953468
 Cd         8.9745325467        6.7827777360        1.5909891776
 Cd        14.2686902427        3.8311297500        5.2685875342
 Cd        11.4111960872        7.2913827282        9.3262405908
 Cd         6.9123645076       12.2369046663       13.6562893601
 Cd        14.6941916913        6.1382548762        2.3053401072
 Cd        12.9598235378        2.8108933093        8.5537895301
 Cd         5.0958757640       12.2570118026        6.5767992932
 Cd         4.9973824245       13.2210483786       10.9463445939
 Cd         8.5376652440       14.8810711034       11.8705152329
 Cd         9.9892480293       10.2750159626       -0.6097789198
 Cd        12.1119464087        7.0229905487        5.4795561767
 Cd         8.8343815259        8.7350255472       11.8510562379
 Cd        10.9391148687       11.8985913757       10.3440911340
 Cd        12.3192999669        8.9059790609        2.5179894484
 Cd        15.0728127736        8.4040604442        4.9748951739
 Cd        13.1446922153        8.9706818582       12.3484542869
 Cd        16.6743748898        9.1464217887        8.9433197725
 Cd        14.6882567056        6.0135891427        8.6625119478
 Cd         9.1480387077       14.6426911698        4.1250284914
 Cd         8.8717681910       13.9481351457        7.8751723964
 Cd        12.2805795652       13.8900719582        6.2555338889
 Cd         7.3788573384       11.0917122514        9.1976280355
 Cd        16.0194692671       12.4274046853        6.7596143587
