426
 i =     9900, time =    19800.000, E =     -8405.8316426118
  O         8.0247808902       -0.2588374216       17.8281831958
  O        13.7901266739        1.2161306357        0.4376207229
  O         4.4132954930       13.4929015401        1.4542480725
  O         2.2107429933       16.2488307547       13.0867340739
  O        11.0334522177        3.7890415726       16.4963593727
  O        17.9594970939       15.3100759731        2.5605403467
  O        17.5437018354       11.8429873961       13.0866353176
  O        11.2126643070        1.3342822366       13.9433049160
  O        10.9816534639       13.7971697781       14.8418470060
  O        -0.6660552301        0.0041156899        1.7424599694
  O         2.4818725464        4.9281337060       12.2741192529
  O         8.6763305654       13.4285561803       16.4738181436
  O         4.2983262651       16.6215559682        5.5423286878
  O        13.2330027237       17.0696894279       16.6714919633
  O        18.1109272437        1.4523713879        9.8992529860
  O        16.6148690543       17.5071005589        4.1532500848
  O         5.5800726934       18.1368404111       15.1129806917
  O         4.2619673044        0.7303853003        2.3521564618
  O         1.8222983838        9.9009386630       -0.5487510032
  O         8.0056067743       15.0362702888        2.2760876180
  O         0.0048882658       17.6661168686        3.6646341014
  O         0.6822873341        6.7158483689        2.9422300374
  O         7.9590338917        2.3352156964       16.9204117913
  O         9.9140971808        1.1190883782        3.5246922152
  O        12.6387473688       16.1676526342        7.0452951429
  O         0.0871508827       15.3470002672        5.3951383571
  O         4.6112878428        0.4407366268       11.1803286331
  O        18.4665470085       18.3775648932       17.2286290350
  O        17.3381359791        4.2265560720       -1.7940214814
  O         6.3423599330        2.3978466604       12.1590219872
  O         2.9121730493       10.1038077851       15.8888487333
  O         6.9198983058       13.5872247898        0.3259856902
  O         1.3068089662        4.9025712726        1.2411075072
  O         4.2112387807        7.7787945117       16.7003314393
  O        15.5424313611       16.2442810383        8.9098761580
  O         0.9247124573       16.3407158913       15.5636002406
  O         3.9157957471        0.7980305519       16.0199078426
  O        15.3759583697       18.5556858487        6.1774983652
  O        14.4596591951        6.2716018016       16.6208403723
  O         1.4895202032        4.2175842841        3.7229688993
  O        14.3554558643        8.4058316717       -1.2055462666
  O        -0.8356967345       14.3450597705       12.9519530521
  O         1.5220560480        4.6943369467       -1.3506894714
  O        -0.0849460945       11.8744127992        3.2832702346
  O         4.1340364835       -0.1386872477       -0.1615088066
  O         0.4074613142        5.2814689108       10.6425158160
  O        10.0079254092        0.8130639924       16.3767316415
  O         4.2817848800       17.2443636600       11.4187334737
  O        16.4183250965       12.6474292751        4.6659511653
  O        12.4363499420       17.3693746714        2.0419951327
  O        16.9677381886       -0.9646463754        9.9478423859
  O        15.9133116988        4.6057400263        1.9479980827
  O         3.0374312184       16.7637667393       -0.0645166973
  O        -0.6918307259        5.8356022055       -0.2268841889
  O         3.8662134226       12.7382602412       15.9719349573
  O        13.9279875055       15.2326129839       12.0364263164
  O        17.6365766387        2.4758487674        1.3277006792
  O         6.4747716601        1.1329785561        8.1222124971
  O         1.9945812923       14.7454413792        1.6175807406
  O        18.4733958418        4.5670381175        2.8740453594
  O        12.0326305095        8.3864970101       16.7648931665
  O         7.7280185638       -0.5003965713        2.6713592444
  O         6.0691699686       18.3518642334        9.5368518808
  O         9.9571827841       11.1400796563       16.9750753001
  O         3.2368562715       -0.8675787659        7.3481810901
  O        -0.1173821182       11.2934277635       -1.7121448472
  O        12.1408500031       17.4137167061        4.6047127408
  O         2.9492254989        4.0181148989       14.8304392855
  O         3.2148688199        2.2505349358        0.2514545087
  O        13.8247765543       13.3536256787        4.6428323600
  O        17.9993887113        2.8111652070        6.2737878995
  O        11.9073287878       15.2583668138        0.3211407793
  O        18.4649308831       -0.1903457175       11.9383003612
  O         5.4043521564       11.6493792264       -0.1131703038
  O         8.6426219997       -0.6356668236        5.1587154156
  O        16.0135520679        0.9798870741       11.5535729490
  O        14.4137171033        0.0150602586       -1.7704340238
  O         5.8157283904       -0.9515387072        6.7299906126
  O         9.6716674624        1.6162784659       -0.4296327520
  O         3.8295830427       -0.3309093575        4.7307370208
  O        17.4139291583        5.8651792585       14.6475119102
  O        10.4296708088       17.6045171067        6.7730587370
  O         4.5596532573       13.8561502350       -1.1217439729
  O         2.1367135951       16.4376614728        4.0971667964
  O        13.2750570689        4.1899152857       -1.8174535089
  O         5.0027177556        6.6521463124       -0.3475366812
  O         5.8427394516        1.8694121490        0.4326379703
  O         1.0886011705        9.6903794807       13.2561245964
  O         8.1373451396       -1.0283122611        7.7723827505
  O         3.4069518125       14.6599130428       11.2119812890
  O         0.8780477514       17.2458232134        1.2232501779
  O         1.4678952551        8.1309045978       17.0150685239
  O         9.4450815195       14.0112910205        0.3950186934
  O        16.6382133640       11.2133431630       10.0193446644
  O        17.2331286310        1.8233547397       16.2414503738
  O         9.5202372959       15.9558548853       15.7263824734
  O        14.5691999086        1.5095246509        7.1292104216
  O        10.4836950164       18.2142409741       14.7585077682
  O         8.0100432636       17.6601683515       14.3849054938
  O         6.6848214933        7.2665526914       -2.6219075144
  O         3.6524203579       14.3518394865        3.8488065689
  O         9.9582434476       16.2335538413       12.9811227088
  O         1.6474096288       -0.5980749715       -1.2803438969
  O         3.6283932214        2.5083091151       12.5969118887
  O        15.4178751852        3.6945800256       15.8976328957
  O         2.9909293077       17.9569592107       14.9292867130
  O        17.4041162320        0.5093348355        5.0474806807
  O        17.1624183769       -0.6812206232       14.4585618763
  O         8.1377084544       11.2887947307       15.0950695122
  O        13.7057438595        5.9851110968       -0.0457390700
  O         4.6883355366        2.9149815979       10.1465117207
  O         0.0795692141       17.4094299998        8.6672432199
  O        12.7967605750       18.8155738335        6.7330032216
  O        11.3640352569        6.1287784829       -1.3886711524
  O        14.4947844711       -0.6608805053        8.8115836956
  O        16.4431242160       16.8427411328       16.0781259984
  O         7.6903744058       16.2112290164       -0.0526213919
  O         0.2231942926       13.6625813599       16.4924106050
  O         5.1951050368       10.6938164517       16.6253034659
  O         1.9551108386       16.9170207552       10.4209101411
  O         4.6117275951       16.5081625538        2.9196335677
  O         1.2016978071        3.1402132070        6.0654619279
  O         1.5830792744        1.3727620244        9.7317706021
  O         8.0795541153        5.0625096173       16.2762495605
  O        14.8475732981        8.2058120281       13.5200396868
  O         1.1333970964        8.4800612061        4.9093623749
  O         5.7828260399        3.9975785527       17.0043895756
  O        10.8208204218       14.6647297176       17.4361985838
  O        15.7270906616       15.0426742645        4.0519014729
  O        17.5303607370       12.2773158014       15.8387176296
  O        -0.1350780244       11.0069025269        9.1615658150
  O        11.2213143751        6.1796011787       15.3405239321
  O         0.8497702661       18.3914580389       13.7144042807
  O        18.3323692025       12.9896783057       10.7726901316
  O         1.5528160977        7.1960833128       -0.0262061003
  O        18.2690887037        6.6477254854       16.8579070109
  O        -0.1250081669        3.0288643707        8.3986760256
  O         2.4766759884        7.7977326173       14.6448942635
  O        -0.4738099723        0.9742003032       14.0973821593
  O         0.8252883504       12.3130086019       12.5253164116
  O        14.1939698227       12.1394484740        0.2583738800
  O        10.0387214339       17.8525182934        3.0334200235
  O         1.2046402526        7.2562253099       12.3983743282
  O        -0.5364634070        1.1307416567       -0.5478747158
  O        18.4599501295       15.6276059065       17.0101406371
  O         0.0204847364        0.4726321680        7.6503820043
  O         6.8841565940        0.7458042731       14.1273851054
  O         8.8289718760        2.3296883658       13.2771145226
  O        18.2199264098       16.9459394630       13.1934831116
  O        16.2170264040        6.4476479139       -0.7602216753
  O        14.7095548424       -0.5387878397       15.1875156115
  O        13.6007286508       13.0472992064       17.1526692187
  O        15.5602324823        2.3391267701       -1.2649065345
  O        -0.2220996719        7.9240712511       14.7190350277
  O        17.0323940239        3.8377056171       13.1126599947
  O         1.0321366566       17.7279815625        6.1116879799
  O         2.4582717593       12.2495396854        2.6710835485
  O        12.8320110166       10.6290338819       -1.4932513958
  O        16.5085510497       15.3737357356       11.7857188513
  O         4.1250620542       17.7733357591       17.2475666103
  O        13.9795903490       16.7977565196        0.0505027908
  O        11.6632915281       12.7772694674       -0.2048416603
  O         6.8633360446        3.3862011247       14.6685305462
  O         6.3578487620       18.2896245355       12.3845822284
  O        16.8865627306       12.2839357012        0.4875937611
  O         2.5159154715       14.8210602223       16.7944961027
  O        15.7880429377       16.7026182382        1.8857091110
  O         1.7471763882        0.0302418808        2.5919592865
  O         0.1010795024        5.0805969968       13.3426805699
  O        14.7847355539       17.4753320549       11.1067809274
  O        16.5982613440        8.2495105069       15.5194764795
  O         7.4560708997       11.2086043217       17.7216355310
  O        16.0467404951       10.4365102060       14.2889814283
  O        16.5685524607       16.8691494890       -0.7288096224
  O         0.8382326009       11.7699701496        0.8113251461
  O        18.8671520851       15.9416519260       10.7840261676
  O        19.2052625862        5.2730577743        6.7699221750
  O        16.4310700203        0.2318036883        0.1561537107
  O        17.8681383190       -1.4457669522        6.7485359736
  O        17.7810605608       12.9364411447        8.2301709742
  O         0.9629383112       15.3275242711       -0.7017290104
  O         2.2842175408       12.5000867630       -1.2323736793
  O         5.1537980563       10.7633837792       14.1996131799
  O        11.2749102932       15.3159772628        3.2243424148
  O         5.8076642277        9.1417838632       -0.7553238434
  O         2.9537792803       11.6120226115       13.8844774021
  O        16.8837134067        2.7198121126        3.7639404002
  O        12.3771876878        0.0737831098       16.0989836426
  O        -1.1189499111        8.6062175663        3.2059967101
  O        15.6234133318       13.1794291537       14.4238174654
  O        14.9942723157       13.2920037858        2.3851226977
  O        13.1567244576        4.5488871025       14.9390953455
  O        10.9283299821        2.5794332136       11.6406466383
  O        18.8048729585        3.4970165252       15.1935761780
  O         9.3572145438        7.5025820518       16.6965214831
  O        10.7253685995        4.0980964336       13.8241994736
  O        15.3076885382       16.7280098688       13.6959135727
  O        11.3108007090       17.8089035519       -0.2123729378
  O        -0.6301362885        8.6627181102       -0.5156860147
  O         0.0196552108        1.9984185391        4.0456020548
  O         4.9583021628        4.8515245494       13.1911830491
  O        14.1890903022        9.5494035254       15.8348874515
  O        15.3733704559       14.5931292705        0.2029597642
  O         0.3509210865        1.3215467175       16.5194018961
  O         1.2518432938       14.8411863753        8.8901162461
  O        11.8046980394        4.0499581360        0.3328494524
  O         0.4653159276       11.5262199051       14.9795467179
  O         8.3672098026        6.0319259893       -0.6364953830
  O         2.6725664381        1.9401340602        4.1335783420
  O         1.4783075105        9.7852935974        2.6683250442
 Na        10.2256560774       11.5026081526       14.0415503907
 Na        18.7685096209       13.6865881326        0.8358209697
 Na        13.8576269831        3.4203711994        1.2623759042
 Na        17.1698139387       10.4080390037       -0.8867079055
 Na        18.2432378924        6.5028028945        5.1006203373
 Na        11.6240483170        0.6415627686        0.7957995537
 Na         5.6615658482        4.4270687646        0.1478645241
 Na        11.9130731759       14.9968940646       12.9961846162
 Na        -0.6644787677        6.1983807580        8.6721441491
 Na         0.2145949453       13.8554893010        7.0558135460
 Na        13.1322112573       10.2487010616        8.0695557571
 Na         4.9892046071        5.8772296975       15.2761648592
 Na        10.5170557829        3.6768746633        2.3631039286
 Na        13.8377164686        0.4162699514       11.6374924102
 Na        15.7045214926        1.9723614922       13.6888317815
 Na         0.1933289888       10.0782765680        6.8911417627
 Na         9.6238540979        4.0209547761       -1.0418283908
 Na         3.0375354590       14.1362674493       13.9835388947
 Na         8.1170013652        6.3523304718        7.4669619630
 Na        17.2883133205       14.8704100924        9.0768857896
 Na        -3.1847822734       10.0373794964       12.1052572713
 Na         8.8757878622        5.7569383336       13.9878772668
 Na         3.3751970104       15.8700763461        8.1418997499
 Na        15.5283283009        5.8361694370       12.6865900627
 Na         5.5218143149       17.2181127463        0.8964227560
 Na         2.9225159482       10.0104736737        4.5905967324
 Na         2.3924711933        3.5630540336       10.0270050709
 Na         1.1557384870        2.6872892788        0.1681476765
 Na        17.9070758117        7.4895968423        1.2158463381
 Na         1.6740769474       12.8233142940       10.1735111528
 Na         5.3513348563        9.6170318796        1.6598816055
 Na        14.1604569515       15.1605390718       17.3697490701
 Na        13.2919039149       15.4610090374        9.4650700599
 Na         7.7476526116       16.9773454257       16.9706191788
 Na         6.3364424351       -1.6471079574        3.9980869507
 Na        12.1239993301        2.1475295980       -1.7526009203
 Na         5.8570770255        0.9698710641       -1.6246452854
 Na         2.4658902485        6.9264436972        6.0297991561
 Na        15.0652719953       13.2186336016       11.6456575502
 Na         6.1028124815       14.4309777139        3.0929183838
 Na        14.4006336324       18.1524902245        2.8929391521
 Na         3.5040793744        6.7744986858        1.3185686979
 Na        -0.7070915781       13.8066530338        3.9323518149
 Na         2.2866467248        1.4434126955       14.7613806077
 Na         3.4282719636        0.9428041516        8.5626330970
 Na        13.3294581501       12.7542014503       15.0005134477
 Na        14.9590468437       15.8444020995        6.5467029681
 Na        16.3716512540        2.2449730233        7.9410829349
 Na         9.2832380210       -1.4140297031        0.5319269415
 Na         6.1459241246        1.5022345088        5.2171695671
 Na         7.8017810921        1.4946574346        1.2709081441
 Na         3.6225983335        3.4050080737       17.2678874163
 Na        17.9564393655        3.5842801395       10.9754032688
 Na        12.7118399844       13.8027923576        2.3749249029
 Na        11.1756307821       16.8910906782       -2.2807549646
 Na         6.9797366796        9.4208232053       15.3940612816
 Na         1.4625132811       -0.1960464316       11.3763656345
 Na        17.3185028220       10.8810013819        3.0233523973
 Na        17.4173411867       14.7604589393       15.1617932333
 Na         1.2142302669        5.1988901712       15.8537415097
 Si        -0.7788325165       12.8415289733       12.3508547809
 Si         3.1368294728       18.1898451964       -0.9092383961
 Si         5.3639885732       13.2572418649        0.1399118399
 Si        14.7095559533        6.7905491930       -1.1978335527
 Si         0.4298284602        8.4367902375        3.4671797520
 Si        11.3687740748       16.9179862012        3.2706119462
 Si         5.4044262252       18.3864421205       11.0526334656
 Si         1.2077734161       11.3680209204       -0.7170089339
 Si         0.6794295438       16.7030749501        4.8233780242
 Si         3.2397647409       13.4883727261       17.3166004545
 Si        15.1231577810       16.1952265547       12.1676504558
 Si        17.9748362852       11.9122910566        9.4419759055
 Si        17.7543049964        0.9215716007        0.7579521838
 Si         8.5078940486       11.7445907563       16.5930314214
 Si         6.5987571467       -0.4308970297        8.0652670496
 Si        15.4946519754       16.2418790440        0.3599347039
 Si         0.2135625394        1.4888588343        9.0207045066
 Si         0.1691349309        0.1084490384       -1.6936943392
 Si        17.8565728633        7.2624000181       15.3910865089
 Si         9.0448306693       -0.2853258416        3.6084966939
 Si        15.2685221363       13.4444907403        3.9799357026
 Si         5.3977351653        7.6390604177       -1.5199133514
 Si         4.3579944776        1.3430299328        0.7841510063
 Si        10.4855136858        2.5353918304       13.1408450403
 Si         4.7999040124        2.0727151662       11.5072735555
 Si         3.0269227157       16.1483669718       11.6251510417
 Si        16.7745847913       16.1323196561        3.2145149138
 Si         0.9608255220        5.6674756205       -0.2424882147
 Si        10.8718263355       14.2056695734       -0.3560776200
 Si         1.7242237604       16.0545722071        0.5650237929
 Si        13.1061638652       12.2337717857       -1.0089390977
 Si         0.8546646579        8.5062788907       -0.9161057000
 Si        17.5854731860        5.7526087753       -1.4114152548
 Si         8.0238267174       14.7789866549        0.6771885457
 Si         0.8105062647       15.1857237597       16.9305564406
 Si        17.5676973696       16.9074107928       17.3601679459
 Si         3.0700707794        0.5142048969        3.4643832985
 Si         6.6690849841       18.5348049652       13.9967646242
 Si        17.3072356067        0.3306545837       10.9135194784
 Si        13.6735502096       -0.8657575486       16.4533508684
 Si         3.0879769654       13.7824265268        2.4318897540
 Si        12.4502380840        5.0778733312       -0.6608044232
 Si         7.2352718545        2.1993276721       13.5634612566
 Si         3.6674260690       16.0547675676        4.0824841892
 Si         8.8822549068        1.0135303949       17.5772084892
 Si         8.0934734910        6.4554202977       -2.1521970335
 Si        12.0273108536       17.4651159557        6.3418193483
 Si        15.9003355540       17.7679313123       14.7875332367
 Si        16.8564663015       -0.9916838840        5.5784144529
 Si         1.3233213767        2.8346723060        4.4686684197
 Si         9.4990940351       16.9590981615       14.3330157322
 Si         4.1723285847       -0.7923150030       15.8516733645
 Si         7.0928072053        3.6220941126       16.2966765876
 Si        14.1141727493        4.6843195031       16.2414035029
 Si         8.8826113886       -1.6241252879        6.3721134932
 Si        18.1028224599       15.7595420879       12.1752015873
 Si        14.9721688748        0.9188016274       -0.5721545587
 Si        -0.2545711025       12.1573980329       16.1735404990
 Si         0.5212716066       18.4324850045        2.3183565126
 Si        15.3516326436        9.0568356157       14.7952098691
 Si        11.5221399529        4.5276305464       15.2069263515
 Si        17.9084970592        1.9954930791        4.7591609254
 Si        18.1650539298        4.4961929158       14.0208491320
 Si        15.5583117850       17.6403274315        9.5535999869
 Si         1.0584815728        5.6846596726       12.0092026610
 Si         1.4384811885       11.2573149368       13.6821080579
 Si        -0.0946563213        3.6736430695        6.8689291535
 Si        18.7003586638        1.8693510334       15.4007159362
 Si         1.0679250453        8.1629896756       13.7305818738
 Si         4.0501305271       11.1923466300       15.3154709038
 Si        16.4392086659        2.9781096488       17.0003090289
 Si         0.0139086143       -1.0999531206        7.2219927643
 Si        17.1325694315        3.6523858420        2.4079411265
 Si        14.3116486851       -0.0801185588        7.2209904204
 Si         1.7367664255       17.1426605755       14.3510665430
 Si         4.2205968391       -1.1799689302        6.1698933231
 Si        10.0200467423       14.3317526350       16.0319646971
 Si         5.9393255438       10.7165610280       -1.3621341195
 Si        -0.8095174293       18.7060019960       13.5210193166
 Si         0.5836101460        5.1496998524        2.7193331164
 Si        12.3719876895       16.8413286712        0.4865484790
 Si         2.7899549100        8.5213272534       16.0861044953
 Si        16.6346681765       11.9710468821       14.4391017431
 Si        15.5110903480       13.0453866803        0.8409951112
 Si        11.0040621806        0.3184303911       15.2856404347
 Si         3.4773355863        4.1604035758       13.3120946529
 Si        11.0451548389        7.0274305688       16.6832165405
 Si        13.3195018822        9.2593646538       17.1838912434
 Si         1.0545171741       11.3489365037        2.4342414339
 Si         0.7125834287       16.2034665916        9.6027106191
 Se         8.0894788236        4.8722054964        9.8000753351
 Se         5.0128003576        7.6598317118        3.5765475891
 Se         5.2926810529        4.2126313162        6.2851293675
 Se        10.8006411461        7.0613886854       12.0153347379
 Se         7.8611666193        4.6099290847        2.3109852659
 Se        10.8715530650        1.4319624897        8.1283711883
 Se         3.9609976485       10.8157942399       10.5912583802
 Se         8.9951873953        7.6499807479        4.9328271019
 Se         2.0743720722        7.7585223759        8.6936058515
 Se         8.1833411706       11.1187428344       11.5387314457
 Se        12.0295450535        5.8749661993        3.3272806405
 Se        11.3883154654        5.4398894191        7.8186302628
 Se        13.8873576949        8.0609000696        9.6661419431
 Se         6.5719957943        7.5740039585       13.2902573773
 Se        12.9526908241        1.9116978087        3.6347740277
 Se        14.8497619708        3.9615321333       10.0328535875
 Se         6.8725100716       11.4346667835        4.1780583331
 Se         2.9228692432       11.7393657983        6.7617131345
 Se         6.5013837079       12.8764020439        8.3890863744
 Se         9.8605798194        9.3220635607        1.7709618542
 Se         6.3157484905        8.4820116804        7.8772062785
 Se        10.1934280780        9.9425604337        8.4107138502
 Se         6.2781711125       14.5878748409       12.9002846242
 Se        14.8048960722        8.6644379438        2.1776022307
 Se        12.4955151988        9.7023612145        5.2531902777
 Se        17.5908779922        7.8776866911       11.0883477666
 Se        12.6363379971       11.1674133292       12.2659372699
 Se        15.4482441453        5.4950821010        5.9115512614
 Se         7.9488457492       15.7697603494        5.8348332708
 Se        10.4188033922       14.3004343117       10.0357882958
 Se        10.0960748966       12.7060995926        5.7884920176
 Se        14.3348440134       12.8464930088        8.1596958508
 Se        16.7251546515        9.2095367673        6.4431701259
 Cd         6.7583420633        9.1335195818        5.2398487013
 Cd         6.2895092157        5.2688410526        4.1770481818
 Cd         6.3103721872        3.2969172467        8.6107115411
 Cd         6.5132909327        5.2350109924       11.7401104963
 Cd        11.2710367372        1.3297932884        5.4597104214
 Cd         9.8335276243        2.9776022880        9.9711222205
 Cd         0.4220051055        8.9440399570       10.0498449605
 Cd         9.7310597286       10.1743849956        5.5497622494
 Cd         3.8722762247        9.6046924731        8.1654316285
 Cd         5.1497210501        9.3968086394       12.2816665293
 Cd         8.7895881408        6.9292591690        1.7052922634
 Cd        14.3227914866        3.2959989105        5.2169931588
 Cd        11.1882376665        7.5927264783        9.3571189261
 Cd         6.6870325578       12.2625321152       13.7079084707
 Cd        14.7971213024        6.0878163797        3.2090493531
 Cd        13.1067321660        2.6797634582        8.7667039881
 Cd         5.2180672573       12.2532183330        5.8330362208
 Cd         5.3140990006       13.0983768130       10.8257552408
 Cd         8.6330982405       14.8851136329       11.7229886424
 Cd         9.9481861036       10.2886158445       -0.5155756283
 Cd        11.7732924306        7.0179963521        5.6090419740
 Cd         8.8272108945        8.7771870757       12.0587722773
 Cd        10.8043332454       11.6983499679       10.2409071997
 Cd        12.1958398692        8.4397101147        2.5927217152
 Cd        14.9700998435        9.3427814696        4.6205911504
 Cd        13.0435626193        8.6566828822       12.0498775006
 Cd        16.2369996389        9.0821716845        9.0733792090
 Cd        14.1411599582        5.8022030703        8.2437020091
 Cd         9.3768494917       14.4535126353        3.9205500465
 Cd         8.7193643659       14.0916370844        7.8142039607
 Cd        12.5258980463       13.6208194233        6.3692011380
 Cd         7.7441914931       10.4693963771        8.8203327921
 Cd        16.3650547425       12.1728534443        6.7625832863
