426
 i =     5300, time =    10600.000, E =     -8405.8821969621
  O         8.3179039680       -0.4188203866       17.8333251214
  O        14.2244979516        0.6951788290        0.4463508143
  O         4.6623880954       13.3825832451        1.4876173021
  O         2.4323897435       16.1992774275       13.1014225566
  O        11.1994297006        3.2542527524       16.2682240744
  O        18.2678399216       15.2356346321        2.5361412876
  O        17.9068514099       11.6224306843       13.2262175733
  O        11.4062226388        1.1379454523       13.8770064534
  O        11.4402853233       13.5643827719       15.1679943008
  O        -0.5765115861       -0.2319401792        1.8890869356
  O         2.8191110726        4.7108434182       12.4535680680
  O         9.0453862314       13.3002597360       16.4656134514
  O         4.4960510979       16.3411220712        5.5471644038
  O        13.6466573386       16.9815749567       16.5061120659
  O        18.4440100745        1.1438663333        9.8011262333
  O        16.9131645577       17.5117347459        3.9139769199
  O         5.8531818107       17.9613835959       14.7363265386
  O         4.5054354241        0.4841186578        2.2767908704
  O         2.2004308357        9.6749308916       -0.6196612440
  O         8.1176231093       14.6765074470        2.5607983531
  O         0.1129573678       17.4465910970        3.7379999451
  O         1.1078764083        6.7729226103        2.9167918325
  O         8.4107334847        2.1684308768       17.0532663704
  O         9.6620788454        1.2138810749        4.2556239121
  O        13.1417544578       15.9531377975        7.2113115916
  O         0.3805553388       15.1929902563        5.3394413229
  O         4.7143380576        0.2777562370       11.1669349396
  O        18.5860708034       18.3093786050       17.3139031358
  O        17.6263943760        3.9457899570       -1.6831722446
  O         6.5938693493        1.9723539005       12.3583625707
  O         3.4911449926        9.6809517505       15.8323067671
  O         7.0786965679       13.4640182390        0.3858901125
  O         1.6023382333        4.8256090036        1.2950257823
  O         4.4950940133        7.4182177362       16.7957818940
  O        15.9793255722       16.0861850525        8.4416073819
  O         1.3996132755       16.2706703701       15.6913908010
  O         4.6403078276        0.6225594892       15.9633440301
  O        15.4388560791       18.5520793917        5.8404901598
  O        14.7365013447        5.9187014076       16.6666476141
  O         1.6811868841        4.1927567416        3.7864739988
  O        14.5546562978        8.0897339333       -1.3295035819
  O        -0.5065780724       14.1903418594       12.7070719120
  O         1.4992242275        4.7107808273       -1.4042061289
  O         0.1462197373       11.5946379568        3.3694334284
  O         4.3487353056       -0.4222980721       -0.1792293732
  O         0.7898659334        4.8252568270       10.7565813363
  O        10.2855113490        0.4854499302       16.2273853237
  O         4.4620937713       17.0924834920       11.5339818895
  O        16.4712636266       12.3810715064        4.5771568228
  O        13.1194160768       16.9825401567        2.2994444140
  O        17.2153996684       -1.1827399104        9.6167638609
  O        16.0896205111        4.0397361298        1.7492630981
  O         3.1963974065       16.6429513754       -0.1623244382
  O        -0.5171818759        5.6824422146       -0.0526091034
  O         3.9258183295       12.5142214002       15.8976027328
  O        14.0950926890       14.8571402662       11.8857445488
  O        18.2369337269        2.4132678918        1.1624148853
  O         6.6830493984        0.9616477097        7.8835896058
  O         2.4892439927       14.7002550607        1.4144144922
  O        18.6743595592        4.5393766054        2.6851311803
  O        12.1244307329        8.0348526487       16.9633048941
  O         8.4247377734       -0.5282647678        2.5620022381
  O         6.1381233491       18.1274001967        9.4924274793
  O        10.3927415400       10.9856864625       16.8676551222
  O         3.4895116314       -1.2174900920        7.3364681327
  O         0.2873873863       11.4124063675       -1.6056225670
  O        12.5499576442       16.9424750622        4.8788092872
  O         3.2852333495        3.6132211095       14.8273346296
  O         3.0920097099        1.8999442013        0.2128470221
  O        14.0676874630       13.6590272769        4.8818457407
  O        18.2136143016        2.9361126038        5.9205345007
  O        12.3748959256       14.8302609383        0.5574662076
  O        18.8660009035       -0.6039189238       11.6412702249
  O         5.5789039197       11.4413486294       -0.2060517668
  O         8.8875874265       -1.1965940574        4.9907802668
  O        16.3578423367        0.5337462794       11.4865706670
  O        15.0916948235       -0.1368858142       -1.9771974823
  O         6.1181044186       -1.1856929619        6.6129797910
  O        10.2093344896        1.3647254711       -0.5442624094
  O         4.0989561862       -0.6072177926        4.6298134439
  O        17.6069277260        5.8664634764       14.5787843839
  O        10.6680821727       17.2241989714        6.7429899773
  O         4.8752045681       13.7117954818       -1.1172274847
  O         2.4676914557       16.4601127736        4.0020393275
  O        13.5900410069        3.8208012336       -1.8056116138
  O         5.4816824744        6.7405202807       -0.0536499316
  O         5.8209270328        1.8215209170        0.3145568507
  O         1.4482594025        9.4209893272       13.0979321712
  O         8.3257373226       -1.1989160003        7.8112890458
  O         3.4371123563       14.4995436748       11.3054038449
  O         0.9413971404       17.0377228948        1.2242993620
  O         1.8378143996        7.9694949025       16.9146364119
  O         9.7695403006       13.7825616764        0.4543418414
  O        16.9467907638       10.8380946123       10.0470451721
  O        17.2843689467        1.5255359951       16.1649291700
  O         9.8139929559       15.7968785617       15.7399875919
  O        14.6140684463        1.3484137705        7.1493237711
  O        10.9298223252       17.9762978063       14.6612793978
  O         8.2961263800       17.1403423053       14.0587837581
  O         6.9941084113        6.8977223801       -2.3908104787
  O         3.9643741325       14.2793972178        3.7865657060
  O        10.3615783308       15.9755930247       12.9344669718
  O         1.9417041286       -0.7226805905       -1.7414435334
  O         3.8579530939        2.2264398793       12.5792563372
  O        15.5790118810        3.3296684723       15.9509428326
  O         3.2133964839       18.0872677349       14.6987770210
  O        17.7529528218        0.4170910812        5.1008098668
  O        17.2597994450       -0.7676804956       13.9859107474
  O         8.5740520661       11.0507754943       15.1100227650
  O        14.0227476829        5.7132378268       -0.1116194649
  O         5.0125536893        2.9456993440       10.3281697989
  O         0.3144271978       17.2407315487        8.5603697364
  O        12.9654890416       18.6013699372        6.6615856092
  O        11.5825352486        5.7068224954       -1.3080859154
  O        14.8525461656       -1.0256771703        8.4375216381
  O        16.7464893033       17.0769888537       15.9208360433
  O         7.9006581060       16.0026511390        0.1843938802
  O         0.3757749204       13.5568897921       16.1293931215
  O         5.5515031719       10.7485350035       16.5517221041
  O         2.1551681341       16.7355266296       10.4970957721
  O         4.9281501606       16.3960576962        2.7921622692
  O         1.5877422731        2.8149771295        5.9719859854
  O         1.6397041616        1.0892092427        9.5819745975
  O         8.3629833654        4.8645855695       16.2217733995
  O        15.2223191275        8.0385878274       13.5276814320
  O         1.4296182968        8.2653036335        4.9775608430
  O         6.1202847799        3.6033827428       16.9325862128
  O        11.1182353344       14.5932515297       17.6629837437
  O        16.1796651333       15.1467140904        4.2025037431
  O        17.8814564481       11.6119393877       15.9213599817
  O         0.2343918573       10.4626250577        9.2288181154
  O        11.2424088598        5.8326177462       15.3719658275
  O         0.8151033823       18.3147878839       14.0130893885
  O        18.8242370928       12.5879726558       10.7232459635
  O         1.7535250235        7.1299148465        0.0165901853
  O        18.5014085132        6.3645715530       16.8215523529
  O         0.0736217737        2.8238452628        8.1931458625
  O         2.7817920800        7.4355323500       14.6145841069
  O        -0.5166664194        1.0142343468       13.8507021319
  O         1.1333089262       12.0817786907       12.7512066143
  O        14.4062375994       12.0684889369        0.3200298398
  O        10.9891072187       18.3500107226        3.2550303054
  O         1.5484772589        6.9535021484       12.4555997308
  O         0.0275827448        0.8689980748       -0.4644007377
  O        18.6742206992       15.5405163461       16.8662462307
  O         0.0957231376        0.2440627993        7.4361894542
  O         7.8606472375        0.3086353386       14.0780666927
  O         9.1959992585        2.1172009230       12.6617192717
  O        18.4776210945       16.7652040529       13.1209805793
  O        16.5063817556        6.3965994252       -0.8490891768
  O        14.8130584524       -0.6517155288       14.8917236376
  O        14.0492338484       12.7850981828       17.2246944889
  O        15.8978514395        2.2096588159       -1.0032846958
  O         0.0048360816        7.8052379517       14.7097740920
  O        17.2611067031        3.7337813005       13.1158327829
  O         1.2703807750       17.6481898675        6.0037190685
  O         2.6119746797       12.2357213392        2.6325358203
  O        13.0854684829       10.2905729491       -1.3820074555
  O        16.7645175520       15.3642069743       11.6379283148
  O         4.3579923631       17.5840511477       16.9647720376
  O        14.3392060458       16.5412024145       -0.0142022992
  O        11.9043045114       12.3828216879       -0.3466664062
  O         7.5065305669        3.0271174614       14.6193050778
  O         6.7462669422       18.1610601112       12.1243199513
  O        17.0080480897       12.0164110057        1.0549659340
  O         2.6603467443       14.5125940873       17.0358794527
  O        16.0455254445       16.4147483194        1.8313998750
  O         1.9884562647       -0.2826776878        2.7279442389
  O         0.3449545696        4.9155499247       13.3601285156
  O        15.0456679735       17.1703499060       10.7665985758
  O        16.9387041069        8.2145303055       15.6113923838
  O         7.8497482186       11.0565986484       17.7444656975
  O        16.1124295219       10.3781759359       14.4247718411
  O        16.8770839254       16.6101163550       -0.8079639432
  O         0.9700378623       11.3128409893        0.8235660143
  O        19.0222009867       15.8497180308       10.5669641651
  O        19.5966646514        5.0527937550        6.5670414041
  O        16.9208343724        0.1314197986        0.2739397144
  O        18.0116202208       -1.6520006463        6.5543252866
  O        18.0462407068       12.5165322244        8.2173073189
  O         0.8647219553       15.1250094101       -0.7013458456
  O         2.8240946203       12.1271545903       -1.0298852058
  O         5.6084227223       10.5165163820       14.1935281688
  O        11.0836936510       15.5797913516        3.0031698027
  O         6.2715677487        9.0118659175       -0.9998730407
  O         3.2909085434       11.3355721406       13.9253472355
  O        17.0075888124        2.4429584649        3.5607041984
  O        12.7922316764        0.0839125424       15.9601317763
  O        -0.6917280362        8.5740708936        3.2483067806
  O        16.0477289524       13.1459272205       14.5647745639
  O        15.0606999425       13.2934102302        2.5305822655
  O        13.3479784402        4.2672161441       14.9593203186
  O        11.5503126973        2.3562500994       11.5314361597
  O        18.9260852465        3.3381422910       15.1654322544
  O         9.5960545722        7.1758137793       17.1499375025
  O        10.9224034856        3.8151265652       13.6095927051
  O        15.4649480768       16.5985241915       13.4715619219
  O        11.7384710055       17.4413902368        0.0995980399
  O        -0.2823586557        8.7273685501       -0.8054912133
  O         0.2581985466        1.9834426511        3.8129899015
  O         5.2538355836        4.4963450276       13.2848104622
  O        14.3706644796        9.3995119669       15.8034915945
  O        15.8557762277       14.2922076752        0.2399695035
  O         0.5131818925        1.0106340024       16.3281873870
  O         1.5378509527       14.9145138093        8.7545945175
  O        12.1799529245        3.7132403583        0.2884087226
  O         0.8735989123       10.9752249802       15.1595491497
  O         8.3470006650        5.2766180252       -0.5805662749
  O         2.9962850187        1.7465507303        4.0496896013
  O         1.8624035221        9.6059601001        2.7183350040
 Na        11.1604113546       11.1990094818       14.6547571005
 Na        18.5572323544       13.6962839413        0.5588016669
 Na        14.3252205741        2.7910514640        1.2562797158
 Na        17.4521483758       10.4610464993       -0.7034739557
 Na        18.5033357884        6.7985535831        5.3386836026
 Na        11.9147542708        0.3089405702        0.9526825121
 Na         6.4351890959        4.1842681834        0.3479083682
 Na        12.3803736066       15.0323534301       13.2835033211
 Na        -0.2247718664        5.7400957699        8.7350723126
 Na         0.6749785898       13.8232861396        7.0295528596
 Na        13.1118167673       10.1122011479        7.6100191062
 Na         5.3652233147        5.1984818315       15.3224096326
 Na        11.1558910386        3.1715754674        2.3803354530
 Na        13.9162935247        0.3673652811       11.0823926574
 Na        16.3626014086        1.5775830655       13.4432854491
 Na         0.4458796815        9.6190757462        6.8023204560
 Na        10.0300974437        3.5669646243       -1.1671815029
 Na         3.0976731072       13.9724012000       13.9632987260
 Na         8.2617005241        6.3336925944        7.3344421261
 Na        17.5894433278       14.6491695280        8.8748382687
 Na        -2.4687250591        9.7865635161       12.1226056534
 Na         8.8612301278        5.1847378631       13.7762865714
 Na         3.6804412113       15.8137606827        8.3288402748
 Na        15.8739212817        5.9775742776       12.5812664004
 Na         5.5166110595       16.5481337262        0.7509695431
 Na         3.1887373526       10.0818402774        4.5538053567
 Na         2.8465232146        3.9642461734       10.0930451877
 Na         1.1341102729        2.6820238412        0.3146273527
 Na        18.1892921627        7.5554436011        1.3092373721
 Na         1.9425917685       12.7528198445        9.7538824872
 Na         6.7678522452        8.2296610571        1.8007993786
 Na        14.4916819683       14.9509627015       17.0527482611
 Na        13.4011706060       15.4762222930        9.4084215945
 Na         7.6281534049       16.6669075909       17.3195899735
 Na         6.8399735228       -1.9953399225        3.4227410416
 Na        12.3238216289        1.8038499249       -1.6909191576
 Na         6.2722975028        0.9609648893       -1.5951254533
 Na         2.7253284010        6.4159187373        5.7254515870
 Na        15.1613609505       12.9757128857       11.0260247377
 Na         6.1660346513       13.6230908075        3.2985986394
 Na        15.2585115651       18.7169930803        2.3329096888
 Na         3.5645722283        7.4144213714        1.3976275673
 Na        -0.8588928601       13.6031315481        4.0185850677
 Na         2.6224928558        1.4093285445       14.8013443987
 Na         3.2635992702        0.9276555570        7.8352796465
 Na        13.9341484843       12.4517599748       15.0313028557
 Na        15.1845124505       15.7961845096        6.3561329096
 Na        16.5043824835        2.4388432244        7.5199480151
 Na         9.4055065848       -1.6198059934        0.7923506091
 Na         7.3519134336        1.4364315197        5.5841307709
 Na         7.7341984786        1.4919301562        1.6366772194
 Na         3.9254439917        2.8257076743       17.3730360617
 Na        18.3514635610        3.3993551286       11.0443968504
 Na        12.7560940588       13.9746095648        2.9004513693
 Na        11.5519998612       17.1129486822       -2.1643258237
 Na         7.4376303234        8.8999416046       15.6585435503
 Na         1.8399837026       -0.2749740415       11.2501805338
 Na        17.4798508175       10.5738698273        3.2750279618
 Na        17.7249024431       14.8450499597       14.9701476697
 Na         1.4845831923        4.5878291241       15.8283480832
 Si        -0.4115335581       12.5743515980       12.3783864037
 Si         3.3448529011       18.0086036251       -1.0880527448
 Si         5.5694341892       13.0835469628        0.1646112647
 Si        14.9862010741        6.5605208762       -1.2268499708
 Si         0.8397808835        8.3620246924        3.4930897420
 Si        11.8468034432       16.9392397517        3.4142377865
 Si         5.5247446504       18.2263330076       10.9936230363
 Si         1.5902125142       11.1323263651       -0.6458691975
 Si         1.0115807103       16.5134233147        4.7796946439
 Si         3.5370156634       13.1978317415       17.3352347924
 Si        15.2835352492       15.9823934377       11.9610812751
 Si        18.3577116280       11.4994620261        9.5171165999
 Si        18.2674337849        0.7772222414        0.7765971224
 Si         8.8959795003       11.6605472903       16.5380885728
 Si         6.7469752843       -0.6387160341        8.0637680706
 Si        15.8468688604       15.9123317592        0.2934443797
 Si         0.3063440125        1.2880450452        8.7464158016
 Si         0.4425959225       -0.0285132819       -1.8137369112
 Si        18.1528628959        7.1312800888       15.4736485362
 Si         9.5158540207       -0.3083855450        3.6981647110
 Si        15.4663770541       13.5442337034        4.1202374044
 Si         5.7221186087        7.4903763119       -1.4024042561
 Si         4.3820801777        1.0626477008        0.6706789211
 Si        10.8245984221        2.3407590269       12.9071721606
 Si         5.1056499979        1.8570887902       11.6037278557
 Si         3.1777382564       16.0681883353       11.6424487552
 Si        17.0613748523       16.0590387241        3.1304299670
 Si         1.1649666456        5.6063194390       -0.2110679197
 Si        11.2326690094       13.8970216832       -0.2303100287
 Si         1.8399375539       15.8880028701        0.4634944096
 Si        13.4427645095       12.0116900377       -0.9350238335
 Si         1.2626299228        8.3796535083       -0.9938135110
 Si        17.8524853550        5.5378662563       -1.3008076292
 Si         8.2622971915       14.6157463948        0.9042763435
 Si         0.9803307446       14.9906894510       16.8554715500
 Si        17.7508014982       16.8856607027       17.2083415636
 Si         3.4062566212        0.1820770118        3.4287076002
 Si         7.1288504873       18.2767336328       13.7636761505
 Si        17.5920278626        0.0358926550       10.6615133006
 Si        14.0898378286       -0.8659891560       16.3433833283
 Si         3.3425516741       13.6057418510        2.4061297313
 Si        12.7851128672        4.7431913641       -0.7116567071
 Si         7.7827821581        1.8373178380       13.4792731389
 Si         4.0081560993       15.9397502248        3.9657061795
 Si         9.3205452210        0.7690676992       17.6063277380
 Si         8.2873872609        5.9971794659       -1.9875408368
 Si        12.3430360142       17.1141166016        6.4430321121
 Si        15.9798947051       17.6748698362       14.5644289166
 Si        17.0502259490       -1.0492042775        5.3183250639
 Si         1.6771886492        2.6496791310        4.3709587398
 Si         9.9294797714       16.7026912529       14.2655599831
 Si         4.5618010605       -0.8838465266       15.5444506644
 Si         7.5614895878        3.3375296487       16.3282990950
 Si        14.3439253329        4.3374995783       16.2391848460
 Si         9.0604137797       -1.9290157479        6.5512375353
 Si        18.3574562213       15.6105043574       12.0067923177
 Si        15.4210212791        0.6629145878       -0.5622546495
 Si         0.1151701862       11.9646268408       16.1838166831
 Si         0.7182069163       18.1881264396        2.3263258803
 Si        15.6748117188        8.8483983295       14.8061106111
 Si        11.6748305323        4.2540990511       15.1304229754
 Si        18.1672181367        1.8645332898        4.6425081930
 Si        18.3200770963        4.4359479874       14.0566427175
 Si        15.8480378979       17.3796567182        9.2848296636
 Si         1.3693975680        5.3312177303       12.1440145799
 Si         1.7350935298       10.9300603148       13.7133948863
 Si         0.2395028559        3.4926006957        6.6911241168
 Si        18.7452595865        1.7081836377       15.2712750497
 Si         1.3977648567        7.9203380698       13.8022995447
 Si         4.4658040110       10.9660715430       15.2896156271
 Si        16.6393679574        2.7378350825       17.0473038851
 Si         0.1886495058       -1.3717235989        7.1296216833
 Si        17.5142901676        3.4295351747        2.2812626692
 Si        14.4837903192       -0.2530382185        7.0735266924
 Si         1.9127308549       17.1538082558       14.4271696847
 Si         4.4984332760       -1.4403829934        6.1574620466
 Si        10.3666732874       14.2781963412       16.1710337152
 Si         6.2495718402       10.6301465962       -1.4205947437
 Si        -0.6833091754       18.5582165416       13.2821059511
 Si         0.8587925719        5.1256526915        2.6901932128
 Si        12.8608891526       16.4857841045        0.6889555874
 Si         3.1754474931        8.1693903017       16.1027600938
 Si        16.9177018119       11.8700758936       14.5718022581
 Si        15.6695911860       12.8749069767        1.0331409749
 Si        11.3606269618        0.1181107108       15.1234275373
 Si         3.8186466353        3.7993717674       13.3557343572
 Si        11.1223817072        6.6945161207       16.8526328611
 Si        13.4807607292        9.0019264265       17.1158450701
 Si         1.2809534435       11.1520623551        2.4128636950
 Si         0.9443368405       16.1500006936        9.5502207852
 Se         8.1572199063        4.7837355552        9.5593140284
 Se         4.8810797445        7.2458103989        3.8631982142
 Se         5.2458077183        4.0093034915        6.1113368818
 Se        11.1897711073        6.8480837317       11.8511632537
 Se         8.4134104206        4.4413703036        2.8283734782
 Se        11.0861895781        1.3685044252        8.3249283477
 Se         4.1621243854       10.8387321114       10.7599444314
 Se         8.7112561659        7.8129939571        4.5452730667
 Se         2.3112171290        7.3381111396        8.5843333985
 Se         8.5926313431       10.9436575353       11.5308859851
 Se        12.2403802772        5.8821229290        3.0243278821
 Se        11.4969721688        5.5677720644        7.4485453104
 Se        14.0573454374        8.4455645914        9.5868302588
 Se         7.0474494449        7.3078710545       13.0526695772
 Se        13.1295093997        1.6507020574        3.9177163107
 Se        15.2950474591        3.7260259018        9.8886060622
 Se         6.6061920276       11.1480142972        4.6210930896
 Se         2.8772745025       11.6746453550        7.0651491785
 Se         6.7060014093       13.1808507913        8.6699328689
 Se        10.2041747486        8.7692626178        1.4086152400
 Se         6.3915266724        8.4339104801        8.2636414372
 Se        10.2485152188        9.8768574370        8.4367797358
 Se         6.7326415635       14.4743068244       12.9803293890
 Se        15.3361943428        8.3824519664        2.2383898873
 Se        12.5421263964        9.2880416095        4.9948292032
 Se        17.7126722831        7.2272080786       10.6724304111
 Se        12.8761087756       11.2248700289       12.4349996709
 Se        15.4777010911        5.6836415257        6.1111301674
 Se         7.9703781538       15.5390877362        6.2372039766
 Se        10.6501467384       14.3026596491        9.8303237837
 Se        10.4294787686       12.5433750210        5.7409626578
 Se        14.3334756656       12.5829008597        8.3332394719
 Se        16.9300340709        9.2514065890        6.4833033576
 Cd         6.1283295711        8.6903924787        5.7099517885
 Cd         6.4468180257        5.1949781968        4.2215214375
 Cd         6.2915005991        3.0371781871        8.4089686083
 Cd         6.4679025851        4.9784950027       11.5111047283
 Cd        11.3428288185        1.4155777259        5.8033195705
 Cd        10.2658565857        3.2543365548        9.9908857533
 Cd         0.5789853260        8.4754923231       10.1439080862
 Cd         9.0485106611       10.2641656569        5.6424682830
 Cd         3.8451683985        9.5158107017        8.4272346572
 Cd         5.4796385129        9.2359677475       12.2878169610
 Cd         9.7955845758        6.1810195496        1.2600603661
 Cd        13.9568238255        3.9885110959        4.8853907187
 Cd        11.4468521429        7.5175760930        9.0698595713
 Cd         7.3334456296       11.9007252574       13.6123058932
 Cd        14.8391968841        5.8806892417        2.3670601154
 Cd        13.3667824840        2.3687636090        8.7594352623
 Cd         5.4181478513       12.2145548884        6.5907528957
 Cd         5.2909944862       13.1360102936       11.1215841417
 Cd         9.0111325601       14.6081680073       11.7422140332
 Cd        10.6548421549       10.1367370629       -0.6944250174
 Cd        11.0892200365        7.0487507653        5.1863817750
 Cd         9.2680558675        8.4347126188       11.7630684775
 Cd        11.1225429822       11.6435421078       10.4682782797
 Cd        12.7531239360        8.5439792410        2.1545623498
 Cd        14.9596041522        8.2090894923        4.9832066423
 Cd        13.2647229265        8.6929699051       12.2173802748
 Cd        16.5795630109        8.8102491690        8.9382816070
 Cd        14.3406110551        5.8062928742        8.6236610806
 Cd         9.5790495886       14.7342952613        4.2268333539
 Cd         9.1600299252       13.8559883167        7.7990948367
 Cd        12.6031624762       13.5781065958        6.6533806808
 Cd         7.7375848235       10.6876329198        8.9738522625
 Cd        16.3756335655       11.8718706218        6.8118827929
