426
 i =     9800, time =    19600.000, E =     -8405.8033040505
  O         7.9064085370       -0.0840612754       17.9078180198
  O        14.0576752363        0.9673987104        1.0281163180
  O         4.4686659690       13.7851615640        1.1430040422
  O         2.7594733671       16.5002629022       13.3761535787
  O        10.7854323399        3.6998960983       16.3578323142
  O        17.7807262334       15.1707345593        2.6251514424
  O        17.7041447091       12.0345700577       13.2439220875
  O        11.2354896450        1.4944201983       14.1070444736
  O        10.9267555670       13.7263542868       14.7849308146
  O        -0.8335435926       -0.1766116598        1.9754595788
  O         2.3278968275        4.4714769253       12.3681318015
  O         8.8963715211       13.5129208351       16.5559689690
  O         4.1546679482       16.4495605389        5.6937561257
  O        13.3309649347       17.2375530269       16.4809873670
  O        18.0759018692        1.2541196566        9.6997098759
  O        16.5338340410       17.4276489333        4.2535145325
  O         5.7161727658       18.2962723483       15.0328059601
  O         4.2676188226        0.7302277274        2.5427452622
  O         1.7561641563        9.9370594302       -0.6478763641
  O         8.0715840701       14.9569004088        2.2166189798
  O        -0.1115385557       17.3407605046        3.6138178950
  O         0.9445011385        6.8157234861        3.4386919731
  O         7.9833231477        2.5459555732       17.2569073144
  O         9.5399352936        1.2272516205        3.5207864155
  O        12.5399158073       15.8990381774        7.0127969296
  O         0.4286705236       15.2694292395        5.5187449336
  O         4.7237141267        0.5481586304       10.9982575401
  O        18.6140970547       18.4568061184       17.2009226795
  O        17.1671214401        4.2291757435       -1.6997550772
  O         6.3684495827        2.1332579681       12.2747314773
  O         3.0114437048        9.9786164749       15.7858183435
  O         6.9775402250       13.7456639277        0.0732769617
  O         1.4296731459        5.0839204122        1.3697726301
  O         4.2279717335        7.7815508681       16.8960294178
  O        15.4199266828       16.2462764412        8.8130306377
  O         1.2066914172       16.5347007918       15.6296200139
  O         4.4277162394        1.0406131239       16.1376027012
  O        15.3245643263       18.2843251705        6.3201597976
  O        14.5427915372        5.9673064199       16.6768101558
  O         1.5413643026        4.1952744961        3.7940961912
  O        14.3066375068        8.1591282597       -1.1620085158
  O        -0.6986049783       14.4406095581       12.9298452027
  O         1.6963090176        4.9567036694       -1.2807022939
  O         0.1026424936       12.1038792363        3.4777322302
  O         4.2073530593       -0.2236050252        0.1747782256
  O         0.3354603506        4.9646727582       10.8479094272
  O         9.9490733136        0.8681260038       16.3417025902
  O         4.2989060481       17.3635050645       11.2043805013
  O        16.2974488068       12.7598618859        4.7611890501
  O        12.6008242897       16.9530288139        2.1889004326
  O        17.0732823669       -1.2869864320        9.9804104117
  O        15.9864648594        4.4531526887        1.9677320092
  O         3.0753090694       16.9036885915       -0.2285065477
  O        -0.6837020971        5.6235737282       -0.1095498345
  O         3.8138171680       12.7205789642       15.8752807898
  O        13.9629468710       15.0956980806       11.9143580019
  O        17.8701948689        2.4210584625        1.4659857638
  O         6.2516520040        1.1313063028        8.1847281417
  O         2.1342518336       14.9705095082        1.4704117216
  O        18.5261837252        4.7269628064        2.8470033950
  O        11.9625119871        8.2588800620       16.7862778554
  O         7.8591821076       -0.7083021533        2.5126115245
  O         6.0628248940       18.0733174191        9.5758838434
  O        10.0808158404       11.1432517852       16.6861172287
  O         3.3032319634       -1.3794999088        7.6240725158
  O         0.1375316232       11.7607896265       -1.6343201456
  O        12.2668344248       17.4058795207        4.8313247649
  O         2.8927257656        3.8376648130       15.0065496834
  O         3.1269902725        2.2740298664        0.4720065708
  O        13.5439086187       13.2081065225        4.3116483479
  O        17.9777919308        2.6619652751        6.2534432214
  O        12.1213030451       15.0771993104        0.3468237664
  O        18.7153958349       -0.0569841568       11.8143008189
  O         5.3785983814       11.6928949801       -0.2991554888
  O         8.6453630639       -0.7851487095        5.0253493552
  O        16.1432814191        0.8144783127       11.4759743851
  O        14.3325597784        0.1876832103       -1.5569272972
  O         5.7016139494       -0.9014415655        6.6831633158
  O         9.8288916777        1.4669839832       -0.4323665683
  O         3.9533002283       -0.3740912900        4.9564952084
  O        17.3104031114        5.9530890839       14.4697147188
  O        10.4312369662       17.5293431255        6.7427159070
  O         4.6524674764       14.0077225284       -1.3964808948
  O         2.1937656967       16.6191277613        3.9588644931
  O        13.1967367980        4.0720068547       -1.8190139460
  O         5.2942564869        6.6872121604       -0.1978088666
  O         5.8047919683        1.8714789114        0.5279345513
  O         1.3662435152        9.5488679319       13.2863617814
  O         8.1221888960       -1.0536508591        7.7425525265
  O         3.3435476511       14.7499991891       11.4128747948
  O         0.9540988161       17.5070351796        1.0593908962
  O         1.3283076631        8.1373356976       16.9340454076
  O         9.6028392510       14.1745850333        0.1126168466
  O        16.7317689864       11.0937278040       10.1021155607
  O        17.2855833833        1.6795202588       16.5674813697
  O         9.5926221933       15.9807122402       15.6296737733
  O        14.6672039443        1.3363072383        7.1754722662
  O        10.5536736236       18.3275247167       14.6643647493
  O         7.9357905542       17.4099346762       14.3330992384
  O         6.7551211037        7.2967068429       -2.4187496947
  O         3.7830121351       14.4209399061        3.6574261383
  O        10.1251329401       16.3236832198       13.0220178217
  O         1.8974749180       -0.4206536891       -1.4226601651
  O         3.7804508840        2.3076470565       12.8205602563
  O        15.3334382599        3.3386295746       16.0031124808
  O         3.0097056892       18.4766051146       14.9009709242
  O        17.0613077983        0.5041279163        4.9955622575
  O        16.9445937828       -0.5664168327       13.8817800690
  O         8.1112986877       11.3741391706       15.1179478815
  O        13.6760423943        5.9092408265       -0.1443576248
  O         4.7694622540        3.1564699811       10.4314223699
  O         0.1533635811       17.2140429754        8.5837008633
  O        12.7684283012       18.6717935939        6.9330718950
  O        11.4151778414        6.0449017900       -1.3157036202
  O        14.6165568471       -0.5735249650        8.9263397280
  O        16.4072880086       17.2004620961       16.0630252147
  O         7.8549096661       16.3520238208       -0.1183585202
  O         0.1963832437       13.8832785958       16.1493162266
  O         5.2338187463       10.6126509387       16.5243367826
  O         1.8141316108       16.8289749879       10.9008331631
  O         4.9064877037       16.5707593785        3.1678381839
  O         1.2189898521        3.0517792959        6.1891009859
  O         1.5725986920        1.3586710848        9.6542956258
  O         8.0247917787        5.1024104155       16.3783893647
  O        14.8608729511        8.2126243757       13.4989073656
  O         1.0657809278        8.7178536563        5.1842061482
  O         5.7844646142        3.9864548742       16.8971399762
  O        11.1050788449       14.8158522253       17.3091090213
  O        15.4057663311       15.1832477253        4.2113705159
  O        17.7527338904       11.9484937231       15.8404839560
  O         0.1452292597       10.7972313370        9.2249056268
  O        11.1436686448        6.0078873408       15.3464798721
  O         0.7592507934       18.4931540064       13.8200813711
  O        18.3306704273       12.9659005749       10.7616151877
  O         1.2943141082        7.3290291109        0.1184527033
  O        18.3457765844        6.4937030049       16.7060513539
  O        -0.1793473097        2.9511199008        8.3469790427
  O         2.4880246520        7.6941454294       14.7243979504
  O        -0.8169424218        1.0471620453       14.2280707287
  O         0.8675032166       12.1789372009       12.5414857124
  O        14.2577981002       12.0821128996        0.1517787522
  O        10.3594077430       18.0728472442        3.0773280703
  O         1.2709126480        7.0791849591       12.4064138699
  O        -0.1839250209        0.9220079424       -0.2972358099
  O        18.4197973666       15.8686497477       16.8377780138
  O         0.2011829969        0.3660210256        7.6917876649
  O         7.6045435228        0.6125947173       14.1543141041
  O         8.8856810229        2.4846820348       12.7001838698
  O        18.3280561406       17.0392766523       13.0991408044
  O        16.3238749399        6.4796440264       -0.7761052811
  O        14.6971908793       -0.2181960849       15.2012744159
  O        13.7325597666       13.0426891575       17.1341976974
  O        15.5432664392        2.4630307506       -0.7865124599
  O        -0.1731791601        7.8303668181       14.5056211301
  O        17.0988617863        3.8296566378       12.9443840861
  O         0.9099859452       17.8115381294        5.9994371409
  O         2.6009196870       12.4052599515        2.3849286241
  O        12.7970749028       10.4598014227       -1.4202951371
  O        16.5660300560       15.4501159418       12.0238917416
  O         4.3111528387       18.0290248964       17.2228245220
  O        14.0550380091       16.7576521108       -0.0535399484
  O        11.7472288976       12.6694790261       -0.4083720196
  O         7.2473234569        3.2639652875       14.6790471488
  O         6.4972004225       18.3349428440       12.3220600570
  O        16.9773695914       12.3189544489        0.6528625138
  O         2.4676962152       14.8130736433       16.6304602268
  O        15.7835805947       16.7249059177        1.7855250769
  O         1.8225920562       -0.3030469801        3.0436957083
  O         0.1132866122        5.1523724714       13.4975325461
  O        14.8484985166       17.4847829586       11.1810965678
  O        16.8173609124        8.4061229933       15.4420098162
  O         7.5504684895       11.3132989335       17.6707666424
  O        15.9793748448       10.4774766768       14.2240930858
  O        16.6271485924       16.8860547012       -0.8219183225
  O         0.6421101503       11.6884920682        0.8570385522
  O        18.7053513386       15.7998825627       10.6129513707
  O        19.1082740871        5.2087702463        6.5886336360
  O        16.5481659583        0.2938669799        0.2106838703
  O        17.7842613309       -1.4696552300        6.6548069591
  O        17.9067143735       12.6059162601        8.0046979757
  O         0.8776347189       15.6172070915       -0.8425544209
  O         2.5169491522       12.4315605219       -1.1202977001
  O         5.3836375500       10.8066856060       14.1407476335
  O        10.9333282808       15.4558803914        3.5026636247
  O         5.9909687249        9.2082733957       -0.7774827693
  O         3.1082989617       11.4956825778       13.8423354752
  O        16.9398271708        2.8385209744        3.8610956598
  O        12.4229514866        0.3580829182       16.1482933165
  O        -0.8424754159        8.6674193087        3.1013591441
  O        15.6700173872       13.1664148383       14.5151629535
  O        15.0560623843       13.1830331584        2.3223157939
  O        13.1455726204        4.1105802366       15.0098964840
  O        11.3166739215        2.3334940338       11.5259177381
  O        18.6839225535        3.5652350477       15.2106185943
  O         9.4145993799        7.3162753560       16.8984152635
  O        10.7990219971        3.9649488541       13.6711125325
  O        15.2006961440       16.7815212583       13.7634809200
  O        11.4542688329       17.6370754194       -0.1454728323
  O        -0.7947334555        8.6969326774       -0.7334688525
  O        -0.0283590864        1.9965388143        4.1783365671
  O         4.7204761332        4.8204416954       13.4126769869
  O        14.1880140803        9.4150894993       15.7980789777
  O        15.5870485501       14.5597602059       -0.0155622079
  O         0.5227163674        1.4387734183       16.5706499144
  O         1.3995150964       14.9334577888        9.0717144858
  O        11.7774391526        3.9010998276        0.3256249999
  O         0.7985758288       11.5786631074       15.1569533506
  O         8.1733854935        5.9641471833       -0.5230590384
  O         2.7203904528        1.8782351828        4.2056743501
  O         1.5280377990        9.8318166381        2.7520961385
 Na        10.2276417025       11.6332972625       14.1391814696
 Na        18.6748098907       13.8312427840        0.8534392920
 Na        13.8667318833        3.3287469733        1.3326293253
 Na        17.5541537057       10.6411756518       -0.8674710984
 Na        18.0930520717        6.8904370072        5.1271690236
 Na        11.9716249600        0.3465325981        1.0405118032
 Na         5.9360676308        4.4569437624       -0.0888390037
 Na        11.9187616010       14.9065652941       12.9654446385
 Na        -0.5630454659        6.0772963114        8.6036758789
 Na         0.8017726773       13.5076532893        7.2299668545
 Na        13.1376290111       10.2233766831        8.0750949232
 Na         4.7487729192        5.3734159113       15.5311196788
 Na        10.4937802498        3.5177662595        2.2209535346
 Na        13.7383106034        0.2068788486       11.6348191647
 Na        16.1972834962        1.9504111750       13.4900236857
 Na         0.2003152830       10.0415009204        6.8101600799
 Na         9.6005324997        4.1689314143       -0.7869939890
 Na         3.0266683686       14.1895242440       13.9879114443
 Na         8.1454626461        6.3291689609        7.5530806380
 Na        17.2489819844       14.8452935337        8.7311156850
 Na        -2.3570045553        9.8363085596       12.1054812040
 Na         8.8737358558        5.1816597718       14.2461437240
 Na         3.3579752076       15.7951656479        8.2251165366
 Na        15.5675295478        5.9345387263       12.7428877510
 Na         6.2274656143       17.2477195560        1.3309042830
 Na         3.0516746190       10.0370941715        4.5575112786
 Na         2.3386788891        3.7876191968       10.1380387482
 Na         1.0009835909        2.6747178618        0.4065310197
 Na        17.9160404931        7.7232472776        1.2685825253
 Na         1.5806886887       12.8070784935       10.1574639201
 Na         6.4350234098        9.6266518559        1.7047258453
 Na        14.0012376866       15.1922033917       16.9610637971
 Na        13.2837613448       15.5246306457        9.4663397122
 Na         7.3690828561       17.1287942625       17.0863935351
 Na         6.3293431307       -1.5058111552        4.4614452617
 Na        11.6906876187        2.1548371630       -1.6716933474
 Na         6.1410279189        1.0003587787       -1.5493236356
 Na         2.7789702193        6.5383735293        6.0190740465
 Na        15.0798048837       12.9120336969       11.4547704812
 Na         6.1075936589       14.4201120123        3.1899681351
 Na        14.6259857870       18.6556156314        2.8730688615
 Na         3.7241516712        6.7231527705        1.2444218098
 Na        -1.0450469055       13.7899038906        4.6082002170
 Na         2.6105199192        1.6072350140       14.8019473260
 Na         3.4214902664        0.9434355849        8.2333902754
 Na        13.3362250109       12.7887656369       15.0615125225
 Na        14.8561689418       15.9199500420        6.5027077460
 Na        16.4525067085        1.8852889331        8.1825399384
 Na         9.2879207120       -1.3993025196        0.5350683042
 Na         6.0611027450        1.7487442428        5.3539035508
 Na         7.8326469265        1.4852864550        1.2790365340
 Na         3.3147925870        3.1942360370       17.4861287814
 Na        17.9648615430        3.6349739289       10.8141367295
 Na        12.3984624644       13.6469307567        2.3564516036
 Na        11.0221105129       17.1771065785       -2.2024279876
 Na         7.0189558568        9.4275502915       15.4224694513
 Na         1.7168236166       -0.1825700508       11.2499256154
 Na        17.3889537383       10.9138379146        2.9838210669
 Na        16.9342948503       14.9222659312       14.7457407646
 Na         1.2275510678        5.3804676709       15.7940418982
 Si        -0.6122948822       12.8416497824       12.3209086392
 Si         3.3772672368       18.3390346981       -0.9401697840
 Si         5.4188189579       13.3577917884       -0.1348983655
 Si        14.7764202921        6.5266929214       -1.1726299975
 Si         0.6547731198        8.6626943894        3.6463986398
 Si        11.4946997782       16.9652606731        3.4467191612
 Si         5.4559302065       18.4226760006       10.9631990133
 Si         1.3436277881       11.5003008021       -0.6318558298
 Si         0.7901706601       16.6270376586        4.8471404575
 Si         3.3028228302       13.5422644260       17.1732735568
 Si        15.1069791423       16.2176497461       12.2025270598
 Si        18.0895011561       11.7708208454        9.4917384364
 Si        17.9754993223        0.9237072571        0.9172577999
 Si         8.6139194152       11.8738014617       16.5062405972
 Si         6.4956922419       -0.4645892521        8.0806916769
 Si        15.5472002799       16.1914638825        0.2199252687
 Si         0.1972292591        1.4450088333        8.9381890995
 Si         0.3588124968        0.1846416817       -1.6570374807
 Si        17.9492727913        7.2009942623       15.2846870050
 Si         9.0635820924       -0.3078895047        3.5163026161
 Si        15.1138910232       13.5203246022        3.9347786054
 Si         5.4935813970        7.6903950186       -1.3732596261
 Si         4.3683965084        1.3124857025        0.9102845955
 Si        10.6169860564        2.4730798547       12.9302747548
 Si         4.8490100909        2.0496902770       11.5909446943
 Si         3.1359210116       16.3045024283       11.7273360026
 Si        16.5710212251       16.0446202370        3.1297597476
 Si         0.9771943805        5.6862703667       -0.0974706885
 Si        11.0493497812       14.1647132744       -0.5720930675
 Si         1.7944909810       16.2054598962        0.4168776139
 Si        13.1985607267       12.0576831877       -1.1050145991
 Si         0.8160704065        8.6253996502       -0.8290981216
 Si        17.6731109052        5.7575369988       -1.3745656005
 Si         8.1093773035       14.8825213652        0.5620940697
 Si         0.7320578883       15.3742378423       16.7651409990
 Si        17.6105120518       17.1898990556       17.2344809828
 Si         3.1505146968        0.4020820145        3.6817157845
 Si         6.8905764656       18.5590320725       13.8738816851
 Si        17.3922983311        0.1877437108       10.7608257900
 Si        13.6929724672       -0.6344195532       16.5280258885
 Si         3.2053579506       13.8731481754        2.1600342838
 Si        12.3754540271        4.9440857691       -0.6643077691
 Si         7.4806878358        2.1721305175       13.4709397691
 Si         3.7303325750       16.0882660190        4.1124151067
 Si         8.8904101888        1.0798634634       17.6539147202
 Si         8.0979148081        6.4740007975       -1.9882296836
 Si        12.0694685386       17.2871464755        6.4930475523
 Si        15.7849866871       18.0688139236       14.7369428929
 Si        16.7123620673       -1.0066055677        5.5406174171
 Si         1.4047642780        2.7118390897        4.5565690479
 Si         9.5537757679       17.0603715649       14.3110472209
 Si         4.3337807820       -0.4983201251       15.7849719077
 Si         7.1709385814        3.6518749304       16.3548054747
 Si        14.1103292646        4.4221586305       16.2872493557
 Si         8.8679599960       -1.7461997022        6.3897615219
 Si        18.1611083368       15.7896790495       12.1435002563
 Si        15.0260174864        0.9166397530       -0.2638659475
 Si        -0.0862884499       12.3253132045       16.2493466692
 Si         0.5549229924       18.2830259583        2.4713647401
 Si        15.4230546296        8.9774432503       14.7907807453
 Si        11.4682667166        4.3326734618       15.1622481072
 Si        17.8429950494        1.9235153512        4.8395630031
 Si        18.0676990957        4.4690496076       13.9653603198
 Si        15.5350509651       17.5959495948        9.6124538296
 Si         0.9911017761        5.4617308896       12.2010223636
 Si         1.6067144095       11.1763727116       13.6758787210
 Si        -0.1287691339        3.6783299793        6.8328527024
 Si        18.6006743063        1.9053948038       15.5703621952
 Si         1.2180671212        7.9886409224       13.7247384998
 Si         4.1342740406       11.0841610250       15.1989194122
 Si        16.3505999676        2.8855678035       17.2161217960
 Si        -0.0489927351       -1.2189555963        7.2487900813
 Si        17.2765363227        3.6852270459        2.5065360301
 Si        14.2792941000       -0.2137218234        7.3347106553
 Si         1.8672736196       17.4312343723       14.4517612001
 Si         4.1066841097       -1.3666765391        6.3058319297
 Si        10.1193451635       14.4239724085       15.9691514813
 Si         5.9944820112       10.7267788235       -1.4862488835
 Si        -0.8511949536       18.8132591823       13.3795560595
 Si         0.7217664733        5.3125672596        2.8753194079
 Si        12.5241711835       16.7042873679        0.4908311359
 Si         2.7936804238        8.4405250522       16.1518637482
 Si        16.6305116596       11.9413517233       14.5702935303
 Si        15.5184792376       12.9807953217        0.7810278166
 Si        11.0056324550        0.4080631138       15.3290988170
 Si         3.4342267772        3.8908714812       13.5098862664
 Si        10.9931840847        6.9181968871       16.7121896773
 Si        13.3888549620        9.0628230225       17.1730466197
 Si         1.1653907782       11.5178244507        2.3890084594
 Si         0.6903159702       16.1861560229        9.7072957339
 Se         7.9464547035        4.8108393465        9.9504442929
 Se         4.5061620739        7.4440093063        3.8541888062
 Se         5.2663536439        4.3722616225        6.4808827328
 Se        11.0491563850        6.8413827761       12.0110778328
 Se         7.8233668335        4.5016012962        2.4829835534
 Se        10.7978538010        1.6767341195        7.9340086763
 Se         3.8094260686       10.7230198693       10.7971644646
 Se         8.9186376311        7.7887488623        4.6031338631
 Se         2.2146883799        7.5222131941        8.6702803252
 Se         8.3770462314       11.0458296886       11.5023604158
 Se        11.9797609613        5.8933188681        3.0613048645
 Se        11.2671033644        5.3789669645        7.8013277913
 Se        13.8253228284        8.1155208704        9.7802945572
 Se         6.6900044385        7.4761733065       13.0470403238
 Se        12.8538305073        1.9279248491        3.8120107650
 Se        15.0191538794        3.7168852441        9.9597710480
 Se         6.8179432033       11.3031848638        4.1470684412
 Se         3.1329014188       11.8377826705        6.8869954685
 Se         6.4830767995       13.0519699676        8.4467718174
 Se         9.8386592192        9.4747570394        1.4878896541
 Se         6.2728947033        8.4675572665        7.8566238566
 Se        10.0760161846        9.9534821237        8.6207543025
 Se         6.6316481186       14.4875172100       12.6123939369
 Se        15.1031390193        8.4010793581        2.2952519087
 Se        12.4271207308        9.4611549471        4.9628258573
 Se        17.6793053718        7.5330174328       10.6293270741
 Se        12.8041357542       11.4128920065       12.4773288224
 Se        15.2570490933        5.4710089253        5.9058403289
 Se         7.7136015259       15.7318491686        6.0191112697
 Se        10.6894840002       14.3546005305        9.7943746860
 Se        10.1098787960       12.6790364086        5.8824272121
 Se        13.9234332096       12.8571166808        8.3640645163
 Se        16.8401637743        9.3985145052        6.4722404911
 Cd         6.4486857640        8.8391905228        5.1737581850
 Cd         6.4972129401        5.2731704235        4.4237104880
 Cd         6.3000155595        3.2690211497        8.6423801946
 Cd         5.8677038906        5.1016703542       11.6517595197
 Cd        10.8280147491        1.9218504062        5.3785676834
 Cd        10.1813868874        3.3876252154        9.6872813455
 Cd         0.6475622365        8.7540690256       10.2342020879
 Cd         9.6676311345       10.1218770496        5.6400928887
 Cd         3.6767036050        9.5744798026        8.4342531080
 Cd         5.0741546789        9.2840393332       12.3957103040
 Cd         8.8400179928        6.8280570946        1.6360886540
 Cd        14.5130552759        2.9874176424        5.5131855217
 Cd        11.1697808181        7.5074331046        9.3752130723
 Cd         7.0016165148       12.1675637067       13.4917785149
 Cd        14.8054227529        5.9363093410        3.0802082715
 Cd        13.1048202819        2.3114024211        8.8639144366
 Cd         5.5270573790       12.1412489680        6.1759686851
 Cd         4.9504752570       13.1740210519       10.8677101808
 Cd         8.9365831980       15.0398556373       11.6670789067
 Cd        10.3557552738       10.4317466112       -0.7701410731
 Cd        11.7923511149        6.7907152122        5.4877910245
 Cd         9.0293393636        8.5077236377       11.7288363522
 Cd        10.8895100655       11.8287795012       10.5693054581
 Cd        12.2258592110        8.3980310694        2.2838441887
 Cd        14.9803876248        9.0625922813        4.7336707143
 Cd        12.7891204831        8.8106113587       12.5534606352
 Cd        16.3531084040        9.1163612033        8.9458014305
 Cd        14.0975042330        5.6884531245        8.4410702083
 Cd         9.1161906296       14.4486735082        4.0536714256
 Cd         8.7743025702       14.0920608834        7.8269005516
 Cd        12.5757603574       13.6064606277        6.1329732945
 Cd         7.4762324526       10.5500749479        8.8937443196
 Cd        15.9076886514       12.1298457126        6.9273549329
