426
 i =     5800, time =    11600.000, E =     -8405.8892678039
  O         8.2153726236       -0.4334074640       17.7011707649
  O        14.4669424628        0.3870010703        0.6585610828
  O         4.7512682490       13.2514005494        1.4713224573
  O         2.7941834817       16.0053344299       13.0049695248
  O        11.3108444060        3.2112522786       16.4413825935
  O        18.0290476540       14.8393435707        2.8417045397
  O        17.9885273987       11.7236524211       13.0254129748
  O        11.4877425614        0.7271830299       13.7069853385
  O        11.3993813750       13.3014688611       14.9039366495
  O        -0.3687762281       -0.3539698676        1.8509014721
  O         2.8944901391        4.3543975457       12.3347413761
  O         9.3219101425       12.9534331048       16.5829715133
  O         4.6929547640       16.1554482537        5.4590344534
  O        13.6383762620       16.7965633713       16.2865990412
  O        18.4217250910        1.0373239630        9.7221120269
  O        16.9926872682       17.2004930006        4.2598337957
  O         5.9140468698       17.5238914566       14.9030800985
  O         4.3805806526        0.5411961886        2.2372662625
  O         2.0995301440        9.6430409505       -0.3571298600
  O         8.3919991681       14.9428557560        2.3132736610
  O         0.2199250313       17.2317308644        3.6700622321
  O         1.3282610337        6.4365739798        3.0046755214
  O         8.5015485034        2.1501945342       17.0798820385
  O        10.0872417144        0.9605064270        4.0463460099
  O        12.7426032439       15.6379194780        7.0298398114
  O         0.7839798401       15.1276878981        5.3916301710
  O         5.0354781826        0.1033528760       11.0870948389
  O        18.8495352192       17.9483651642       17.3120620407
  O        17.5522403099        3.8349719905       -1.7564932691
  O         6.6130026688        1.8207587624       12.3826050832
  O         3.2594905985        9.6806918767       15.6500765799
  O         7.0958899337       13.5577603249        0.5158071258
  O         1.7002013659        4.5651133552        1.1895889981
  O         4.5715250221        7.4962364798       16.8923233378
  O        15.8794392403       15.9804950818        8.4759039312
  O         1.4261896358       15.8764569230       15.4303719174
  O         4.5650829638        0.4118060245       15.9043216007
  O        15.6908739984       18.1893130313        6.2826690807
  O        14.7551344350        5.6917387666       16.5780765249
  O         1.7711447787        3.8294794892        3.5732186747
  O        14.5417043712        7.9113538008       -1.2509172432
  O        -0.2169830981       14.0737087415       12.7410632531
  O         1.9030811126        4.5020750525       -1.3834677654
  O         0.1858873699       11.5041358684        3.5005449346
  O         4.6211638416       -0.6162613651       -0.0289372155
  O         1.0328409443        4.5431355455       10.5740930660
  O        10.2981220072        0.5018091085       16.1267386910
  O         4.7723466260       16.8566004836       11.2175635200
  O        16.7173877975       12.6457672432        4.8298053666
  O        12.9975998637       16.6911795217        2.1190903293
  O        17.4830625121       -1.3431042178        9.6153541367
  O        16.2384787241        3.9408926770        1.7678184865
  O         3.4079650262       16.3845424378       -0.0400041874
  O        -0.4181116729        5.4096374773       -0.1430188131
  O         4.1640879112       12.3929855873       15.8613480769
  O        14.2957356215       14.6859090567       11.9386173380
  O        18.2847756654        2.1364686367        1.1521615956
  O         7.2321324354        0.8279156388        7.9049485891
  O         2.3526475638       14.4351145343        1.4659850263
  O        18.7783812694        4.4861068330        2.6033889595
  O        12.1957489143        7.8877565163       16.7895410470
  O         8.4564248264       -0.5665416277        2.4307728199
  O         6.6109340244       17.9802805751        9.5154852832
  O        10.2875603580       10.4716685318       16.8053048190
  O         3.7499816238       -1.5938788841        7.3352332707
  O         0.2271790967       11.3640492748       -1.6102476368
  O        12.6446452540       17.0107813588        4.7538742346
  O         3.2048197749        3.3493714340       14.9302407467
  O         3.3142982001        1.7078195085       -0.0199295113
  O        14.0810973059       13.2587499136        4.9717480639
  O        18.2715008637        2.8617334109        5.7687087865
  O        12.2390857157       14.6755098304        0.5754633413
  O        18.9124749528       -0.5669593993       11.7419543459
  O         5.8031955310       11.3112658759       -0.0055828827
  O         8.7485130056       -1.1333426749        4.9690528404
  O        16.4497393355        0.4069666046       11.4247677239
  O        14.9425232771       -0.3510833230       -1.9678110771
  O         6.1481008469       -1.0323233669        6.4622679989
  O        10.3314083497        0.8638128839       -0.5690317366
  O         4.3947552443       -0.6563263628        4.6189064273
  O        17.6178807171        5.3964654701       14.4153343901
  O        10.8189651552       17.4510876779        6.5192536908
  O         4.9772037204       13.5321769294       -1.1363698680
  O         2.7318182565       16.4174172695        3.7533437179
  O        13.6827559809        3.6552055286       -1.8507492796
  O         5.5146854039        6.3490754629       -0.1698682912
  O         5.8943088839        1.7411018593        0.2804186708
  O         1.3755128101        9.1634542837       13.2681055307
  O         8.4879503946       -1.3671072164        7.6634456858
  O         3.6062338598       14.3751239305       11.1483352724
  O         1.1230770343       16.8103017291        1.2394947841
  O         1.8586604908        7.8750500607       17.0918299851
  O         9.7269302714       13.7636105152        0.2938241843
  O        17.0402220303       10.6518739011       10.0148954918
  O        17.6609701457        1.4120525220       16.3834729645
  O         9.8802992499       15.4684422174       15.7447209257
  O        14.7250198629        1.1516425328        7.3315976003
  O        10.8950248909       17.6473469232       14.6594078846
  O         8.2430740286       17.0250418341       14.5053735377
  O         7.0079496501        6.7867753581       -2.3911160692
  O         3.8261119818       14.0771871958        3.7154355848
  O        10.2425207377       15.6784486364       13.0958795062
  O         2.0135704809       -1.2071112009       -1.2438955611
  O         3.8980549079        1.9271602769       12.6899671067
  O        15.6976379996        3.1261166857       15.9074068273
  O         3.3386899138       17.6768463786       14.8946545772
  O        17.6631825137        0.2811229926        5.2129131249
  O        17.4939515436       -1.0523890571       14.2020166807
  O         8.3907966232       10.8381892517       15.1516693685
  O        13.9958331971        5.5346980565       -0.1843667962
  O         5.1651478905        2.8117528669       10.4765430908
  O         0.5806251341       17.1652817002        8.5170826419
  O        13.2125299178       18.2573660584        6.9195273531
  O        11.7305833077        5.7266764472       -1.2891855850
  O        14.8844637162       -1.0314087121        8.8106755728
  O        16.8213730088       16.4955057559       16.0532493834
  O         8.0623377532       15.9512719493       -0.2242399081
  O         0.6701439160       13.3469597693       15.9961619527
  O         5.3345453522       10.4745113524       16.8243148504
  O         2.1861682933       16.5870284118       10.5058379525
  O         5.3145788549       16.0423488004        2.7430199731
  O         1.4664251816        2.8533918228        6.0253186786
  O         1.7501868524        1.4004956010        9.3646522700
  O         8.4338260248        4.7239380952       16.2239287915
  O        15.2381737937        7.8052146615       13.4285695037
  O         1.6801928982        8.2992463825        4.8825775446
  O         6.1384726876        3.5593626836       16.8994201651
  O        11.2745616186       14.3244613777       17.5613585662
  O        15.6397846923       15.0423317744        4.0433869305
  O        17.9693936349       11.7567716455       15.7751651914
  O         0.3207711983       10.4548090047        9.3307063041
  O        11.3110374236        5.7410489120       15.3589379139
  O         1.2003656679       18.0751787309       13.9066390704
  O        18.8236424029       12.5630725350       10.6971348242
  O         1.7949495886        6.9265482628        0.1468687421
  O        18.5311542149        6.0211975615       16.6668330387
  O        -0.1161239068        2.8672262183        8.1098199181
  O         2.6163897487        7.1878903258       14.8088509229
  O        -0.2616602323        0.6537415396       14.0985277437
  O         1.1746407272       11.7333617649       12.5106877482
  O        14.2903472261       11.7501844763        0.5079861900
  O        10.7244359172       17.7628705216        3.2415732250
  O         1.4915663436        6.6424912177       12.4618799598
  O         0.0496400737        0.6378170781       -0.5123236006
  O        18.9294924275       15.3807089784       16.8228993098
  O         0.3565690781        0.2329145059        7.4451115791
  O         7.4610655496        0.2299088032       14.2110007395
  O         9.2690875706        1.6168105407       12.8434342758
  O        18.8306985172       16.5622697018       13.0926110876
  O        16.5248624786        6.1174379572       -0.7540761341
  O        15.0622262760       -0.9408958105       14.9487093266
  O        13.9298956301       12.8350130608       17.3502661489
  O        15.7999803833        1.9375231422       -1.1630444728
  O        -0.1522990413        7.4473909191       14.4620346102
  O        17.3655830339        3.2637236591       12.8761335074
  O         1.4639381215       17.6359301791        5.9481181935
  O         2.7321311507       11.9234718798        2.5638946667
  O        13.0987794433       10.1614963077       -1.4564655385
  O        16.9587074938       15.0650742966       11.7713246893
  O         4.4198999326       17.4217389762       17.2189940236
  O        14.4531046696       16.3139498540       -0.1119053645
  O        11.8478568303       12.2791433235       -0.2600794097
  O         7.6963611512        2.8517276800       14.6139178576
  O         6.9371932935       17.8829059718       12.2053963073
  O        16.8952912573       11.7990975450        1.0062433479
  O         2.8026613244       14.2831954245       16.8805579150
  O        16.2091116084       16.4976457364        1.8474638989
  O         2.0704780291       -0.4935602172        2.7469073994
  O         0.5328436098        4.2568285011       13.2381486747
  O        15.2474561342       17.0363536167       11.0417753811
  O        16.7320196147        7.6874935415       15.6967883562
  O         7.8603504692       10.8575104607       17.7662763559
  O        16.5944490298        9.9400887805       14.3078724714
  O        16.9977361052       16.2448265738       -0.7902542864
  O         0.8574990137       11.6627143458        0.8733175220
  O        19.1264697562       15.6395721518       10.5211424734
  O        19.5367661330        5.1333883108        6.5577356900
  O        16.9938677807       -0.1104628913        0.0262103162
  O        18.2628915963       -1.8218501339        6.5731313964
  O        18.1561534907       12.2808141514        8.1153666798
  O         1.1840455000       15.0400675507       -0.8536317270
  O         2.7674180002       12.0197053052       -1.2263596092
  O         5.6413363508       10.2979432657       14.3558809602
  O        11.3484634838       15.0211582863        3.4302678158
  O         6.1547112544        8.8563450584       -0.7594723197
  O         3.3166035100       11.2052228263       13.8943000570
  O        17.2083520719        2.3503472165        3.4911028186
  O        12.7119514647       -0.1436027913       15.9415210742
  O        -0.6416376131        8.2197988411        3.3215629756
  O        15.8351047907       12.6616203410       14.3180235119
  O        15.1554306376       12.9737982221        2.6247429868
  O        13.4067154329        4.2007370076       14.8454168237
  O        11.4747284271        2.3667431841       11.5696342091
  O        18.9880927659        3.0027011714       15.2208518193
  O         9.6781873975        6.9725239868       16.9205658218
  O        10.9130728670        3.5154511991       13.8371078021
  O        15.6914798962       16.3286604301       13.6277154215
  O        11.7833732435       17.2690331704       -0.2356173406
  O        -0.3457606570        8.4491998604       -0.5413125058
  O         0.3605244765        1.5122276665        3.9987983680
  O         5.1989666683        4.2584256674       13.4665695704
  O        14.3637178325        9.1073430067       15.6806768197
  O        15.7805925558       14.1552375069        0.3610938632
  O         0.8458409961        0.7272787646       16.4676572269
  O         1.3753433657       14.7128116132        8.6384763180
  O        12.1528329049        3.5325228839        0.3471881636
  O         0.9898634920       10.8927111355       15.1990454110
  O         8.4596526839        5.3626679738       -0.6003017056
  O         2.9840135939        1.4786936201        4.2915715333
  O         1.5602419853        9.4447546741        2.5545135332
 Na        10.7964066278       11.0192919649       14.4658315935
 Na        18.7112259608       13.3514462288        1.2700460852
 Na        14.5252453085        2.6831660455        1.0911035440
 Na        17.5080443581       10.3626177020       -0.5483908813
 Na        18.4951273292        6.7977097648        5.3158267170
 Na        12.0713953122       -0.2354283830        1.0820871587
 Na         6.4687517164        4.1657297051        0.0879816906
 Na        12.5040667857       14.8058284565       13.1271969504
 Na        -0.1033844129        5.6225719904        8.8337286390
 Na         0.7987110705       13.3936873035        6.9610743065
 Na        13.4720534034       10.1238545262        8.3668895093
 Na         5.2826739603        5.1453749155       15.5541575555
 Na        11.1669906110        2.9536889394        2.2810192567
 Na        14.3593903348        0.0156159175       10.9841661761
 Na        16.4281944782        1.4621342422       13.4920402319
 Na         0.8004799016        9.6089317152        6.8688720693
 Na        10.0307522482        3.5780788342       -1.0788779073
 Na         3.4021922683       13.6914104509       13.7420075371
 Na         8.4500146477        6.0252341445        7.3517940641
 Na        17.5058383066       14.2505269054        9.2677890565
 Na        -2.3009209886        9.4746535503       12.0119006469
 Na         9.2245891709        5.3220583911       14.0814223375
 Na         3.0510924816       15.5372296539        7.2091734613
 Na        15.6707697940        5.6674460873       12.5668998384
 Na         5.7752414933       16.5191817501        0.5390319742
 Na         3.1397855431        9.7620339193        4.4371163183
 Na         2.9802262651        3.5160332359        9.8664265438
 Na         1.3891560770        2.5466905785        0.0651139658
 Na        18.0323569119        7.1320284643        1.3651476467
 Na         1.8910012805       12.4470874745        9.7520074963
 Na         6.5969600576        9.1178147586        1.8275076533
 Na        14.6834898313       15.0078649350       17.0552885746
 Na        13.4844252802       15.3395780456        9.4898635921
 Na         7.5625134708       16.9048244899       16.9175744395
 Na         7.0646799839       -2.0281228985        3.4494689507
 Na        12.1814155286        1.4849610415       -1.6565422982
 Na         6.2575870630        0.7620294093       -1.7562109203
 Na         2.7994246032        6.2040661538        5.7201134596
 Na        15.2213916957       12.2607345812       11.5471540006
 Na         6.2616462872       13.9229651910        3.1554076757
 Na        14.8434223024       18.2622076586        2.4491773203
 Na         3.7069466440        6.5382345116        1.3098285491
 Na        -0.3173743664       13.6096134885        4.1974133774
 Na         2.7727140104        1.0241640910       14.4521184638
 Na         3.0641633809        0.6205768720        7.5838863368
 Na        13.6265235403       12.4375930786       15.0630091944
 Na        14.9680760211       15.6769592274        6.1306373095
 Na        16.6840945535        2.1823632963        7.5948667024
 Na         9.2451683386       -1.3938347276        0.3888331383
 Na         7.0134078470        1.1424843563        5.3707766430
 Na         7.9938250474        1.2707398144        1.3919964179
 Na         3.7264922970        2.8743616722       17.4132638579
 Na        18.3032088219        3.2341857975       10.9458022395
 Na        12.8944838635       13.4027797395        2.8945579201
 Na        11.4975864031       16.5396816616       -2.3521330216
 Na         7.1717283489        8.8436454796       15.3867431011
 Na         1.8384025017       -0.2431956701       11.0269037496
 Na        17.5852007057       10.2853010031        3.4386719474
 Na        18.0141742399       14.5645056965       15.0001282381
 Na         1.3475536562        4.5056953402       15.8337967620
 Si        -0.2080096092       12.4878827843       12.2735156983
 Si         3.5856626183       17.7749203029       -0.8763367314
 Si         5.7076874096       12.9207789421        0.1858155165
 Si        14.9504400353        6.3632354422       -1.2614488232
 Si         0.9369645084        8.1619236335        3.4636120131
 Si        11.8614552495       16.5702483220        3.4081564574
 Si         5.8650465821       18.0626858176       11.0303574727
 Si         1.5338961895       11.1730206515       -0.5498623486
 Si         1.2917147310       16.5027357813        4.7159164793
 Si         3.7187120888       13.0561518026       17.2872646702
 Si        15.4802371930       15.7352993726       12.0765443006
 Si        18.3374402350       11.3608093191        9.4337419910
 Si        18.3667406204        0.5412543397        0.7215529328
 Si         8.9751317556       11.3517380653       16.5660300836
 Si         6.9422091551       -0.7443455616        8.0227793685
 Si        15.8866779727       15.7617044765        0.3949639597
 Si         0.3351968004        1.2528153693        8.7057673982
 Si         0.6539233125       -0.3933447027       -1.6467584596
 Si        18.0014375271        6.7534180894       15.3169688948
 Si         9.6167842632       -0.4865737949        3.5852621096
 Si        15.4596875339       13.3955558074        4.2369458455
 Si         5.8059988691        7.3131724515       -1.3534716029
 Si         4.5473803978        0.9525636737        0.6226407969
 Si        10.8276944198        2.1085910401       12.9895353875
 Si         5.1789747843        1.7065018536       11.6383478552
 Si         3.4581734485       15.9230928737       11.3825048260
 Si        16.9032835415       15.8717236565        3.2836943026
 Si         1.2487707951        5.3986091002       -0.1762317455
 Si        11.1764444800       13.7640297357       -0.2761884177
 Si         1.9845549519       15.6294467957        0.4021176010
 Si        13.3692153734       11.8566178284       -0.9443654901
 Si         1.2015033254        8.2916882221       -0.7478011049
 Si        17.8948726427        5.3773434699       -1.4049495668
 Si         8.4011762548       14.7018368301        0.7329478103
 Si         1.1837429037       14.7402140982       16.7737221812
 Si        17.9679889935       16.5413953316       17.3034063445
 Si         3.4362584570        0.1049183868        3.5087254194
 Si         7.1052847712       18.0641135005       13.8545360707
 Si        17.7171051976       -0.0863616879       10.6625936662
 Si        14.0530391536       -1.1195022762       16.2157155338
 Si         3.3157910626       13.4262721654        2.2556474174
 Si        12.8082796351        4.5353159694       -0.7110746255
 Si         7.7349328459        1.6184193502       13.5215691480
 Si         4.2285216005       15.7596939242        3.8611716184
 Si         9.3489004598        0.6362432484       17.5212449149
 Si         8.3502630107        5.9436411197       -2.0483777462
 Si        12.4233546984       16.9807021951        6.3367467407
 Si        16.3270407766       17.4222964710       14.7498175817
 Si        17.1756349463       -1.2167224699        5.5545232538
 Si         1.6733166832        2.4326466297        4.4686810043
 Si         9.7883560154       16.4486343432       14.4119586039
 Si         4.6027942030       -1.1319669593       15.7230939461
 Si         7.5990460020        3.1793912191       16.2546657812
 Si        14.4018844594        4.1252300869       16.1452327921
 Si         9.1738623163       -1.9886106693        6.2918943339
 Si        18.5441367322       15.4372665894       12.0257044276
 Si        15.5495737545        0.3661606649       -0.5606366538
 Si         0.1438184701       11.8097552609       16.2277072631
 Si         0.8061348366       17.9711589663        2.3186192033
 Si        15.6962163346        8.5955283913       14.7704700798
 Si        11.7156072399        4.0826662322       15.1752641124
 Si        18.2257929703        1.7544249061        4.6116261486
 Si        18.3850717740        3.9764717570       13.8707382768
 Si        15.9647539306       17.2343630277        9.4289847632
 Si         1.4576999687        4.9828637377       12.0275533493
 Si         1.7736185351       10.7098779517       13.7292458464
 Si         0.1466453846        3.5659457168        6.7004254497
 Si        19.0303423520        1.3978433995       15.4784912381
 Si         1.3994203501        7.6543660191       13.7725670254
 Si         4.4283222660       10.8305077241       15.2911086442
 Si        16.7507534235        2.5520403610       17.1003772561
 Si         0.3223779095       -1.4103796780        7.1561668838
 Si        17.6075885527        3.2711447638        2.1931235633
 Si        14.5642750423       -0.4215549883        7.2657273299
 Si         2.1758046766       16.8085848523       14.3535432090
 Si         4.6617785961       -1.5933710207        6.0587806911
 Si        10.5295975305       13.8931185796       16.0908021022
 Si         6.3032264869       10.4187741524       -1.3598626513
 Si        -0.4202531344       18.3328471757       13.3967080235
 Si         0.9886083043        4.8915329712        2.6324332047
 Si        12.7768599419       16.2860772695        0.5138621752
 Si         3.1712419141        8.1373697620       16.1913892020
 Si        16.9627502043       11.5593408356       14.3807232430
 Si        15.5508213664       12.6103199848        1.1103524805
 Si        11.3286967595       -0.1682176623       15.0854472566
 Si         3.7179566024        3.4710037927       13.4499227035
 Si        11.2528434037        6.5310518263       16.7860859180
 Si        13.5409231661        8.8126183230       17.1075832518
 Si         1.2812316089       11.0525510357        2.4537168405
 Si         1.0283446774       15.9420732203        9.5510616466
 Se         8.3154049395        4.6174905972        9.9733705352
 Se         5.0899212379        7.1315863051        3.8991661344
 Se         5.4533376839        3.4481871563        6.2618124541
 Se        11.1852129517        6.4540038384       11.9732833398
 Se         8.0376148216        4.0031552059        2.4576421183
 Se        11.0707828089        1.0206108005        8.3368226636
 Se         4.1127657270       10.6473000705       10.8148482616
 Se         9.0828961997        7.5653064360        4.7905052168
 Se         2.5284810436        7.2476630834        8.7975186753
 Se         8.6287548796       10.7906970030       11.6432476225
 Se        12.2602356935        5.4853399146        3.1683867633
 Se        11.6024947228        4.8642626806        7.2597298431
 Se        14.2250587851        7.8268394424        9.6216648868
 Se         7.0197240303        7.1659970707       12.6919661026
 Se        13.4347234577        1.3973462298        3.9739568009
 Se        15.1310223768        3.4384585046        9.9641741469
 Se         6.3392449646       11.1173587458        4.3886647403
 Se         2.9667535095       11.5755413907        7.2948052890
 Se         6.8029628753       12.5944096058        8.5197868670
 Se        10.2562459636        8.7408595597        1.5946050747
 Se         6.5048139609        8.2201511819        8.1851399355
 Se        10.4731713682        9.3192831792        8.6654906664
 Se         6.6206116338       14.3025780152       12.7564080866
 Se        15.2549253475        8.2758684232        2.2830756192
 Se        12.8278087931        9.3345990418        5.2624707253
 Se        18.0370852806        7.1243815518       10.8137488600
 Se        12.8435059432       10.7973419318       12.4236425944
 Se        15.5664673311        5.5298595154        5.8506395493
 Se         8.1086389692       15.3481050203        6.0172944196
 Se        10.9064412085       13.9619148635        9.9382343114
 Se        10.3548374724       12.2973314897        5.9158796396
 Se        14.4229106460       12.6975263737        8.4463611338
 Se        17.1683144096        9.2521026279        6.4574388174
 Cd         6.5215684515        8.7778292922        5.4733454507
 Cd         6.5588821744        4.8381166308        4.3591241127
 Cd         6.6959977315        2.8158127034        8.5777158892
 Cd         6.5075682156        4.6460048033       11.8772084835
 Cd        11.5385483530        1.1157885282        5.7637689213
 Cd        10.2291898888        2.7798441857        9.9513105562
 Cd         0.8085120267        8.5330680145       10.0882733300
 Cd        10.1857543220        9.6741658782        5.8698411985
 Cd         4.0709795666        9.2942548529        8.5263921065
 Cd         5.5460327170        9.2025751234       12.3009753056
 Cd         9.2938943117        6.2477795706        1.6559447889
 Cd        14.2310953518        3.5555097593        4.8748604177
 Cd        11.6852954112        6.7527935121        9.2832673048
 Cd         6.9754184774       11.8356582043       13.7357730850
 Cd        14.9540293816        5.7578685272        2.3992796537
 Cd        13.2433618196        2.4089882801        8.5570260813
 Cd         5.3915542743       12.1327137248        6.4609067596
 Cd         5.3579042154       12.9919773533       10.7506087979
 Cd         9.0285130674       14.4214929683       11.8192779324
 Cd        10.7076426857        9.7916551945       -0.6228029849
 Cd        11.8396549083        6.8075617537        5.6293120442
 Cd         9.3444516892        8.3144879926       11.9453918753
 Cd        11.2194037287       11.3251440610       10.3769886488
 Cd        12.5656080163        8.3843262662        2.6967821011
 Cd        15.1255690135        8.1823909905        5.1821283015
 Cd        13.2631656046        8.1601276419       12.2342759337
 Cd        16.6974045675        8.4970621311        8.8460806411
 Cd        14.7485304109        5.6048114021        8.4835255185
 Cd         9.3683043872       14.1848486242        4.0836540877
 Cd         9.1981579173       13.7369089498        8.0903104942
 Cd        12.6535399364       13.2962737920        6.6603425146
 Cd         7.8130968175       10.0803529030        9.1667479785
 Cd        16.3495590355       11.8114472460        6.9046043719
