426
 i =     7400, time =    14800.000, E =     -8405.8980332245
  O         8.2795351714       -0.3783965915       17.7501760082
  O        14.1942500385        0.8361186432        0.3942642286
  O         4.6857422177       13.1226022367        1.3098223750
  O         2.5250237918       16.1648709098       12.8995219251
  O        11.2957341231        3.2973707070       16.2697175612
  O        17.9209365327       15.0775120042        2.5337962203
  O        17.6283608101       11.9690682862       12.8899862041
  O        11.3397512589        1.0800259232       13.9302497250
  O        10.9968503333       13.5230454494       14.5989902435
  O        -0.3361105620       -0.3707869276        1.5824901813
  O         2.6458288492        4.2455112078       11.8745247981
  O         8.8900413325       13.1300631311       16.2870925044
  O         4.4706270259       16.2569692203        5.3561292061
  O        13.5473196217       16.8755096611       16.4053344549
  O        18.4658011839        1.0871157730        9.5668032973
  O        16.7652200486       17.3013955664        3.9659556045
  O         5.8072507966       17.8763823886       14.5407371793
  O         4.5174448996        0.5999222355        2.1546515580
  O         2.0764055151        9.6749737534       -1.0798881026
  O         8.1776497374       14.4148662075        2.1786716814
  O         0.1513852960       17.3630873553        3.4763505324
  O         1.1274965872        6.5840088377        2.6849587917
  O         8.3690007566        2.2735944893       17.0395375358
  O        10.7651493651        0.6840757097        3.4080063445
  O        12.9108928446       15.8007914516        6.7868016664
  O         0.4924044695       15.0809406756        5.1908218254
  O         4.9768061752        0.2035777539       10.9908360665
  O        18.7247980731       18.0050828751       17.3034074714
  O        17.6535847986        3.8682857260       -1.8006292531
  O         6.6427755844        2.2016357534       12.1116747311
  O         3.3015492474        9.6095962506       15.6215948178
  O         7.1055776466       13.3375892329        0.0865950488
  O         1.7447929343        4.7300196736        1.0223117992
  O         4.4653270498        7.3046697665       16.4707365930
  O        15.9103203992       15.9493385367        8.3366964590
  O         1.3642803564       16.0147511139       15.2769737821
  O         4.5783737386        0.5980897191       15.8070137392
  O        15.5078761070       18.2789652814        5.9900179011
  O        14.9978709948        5.7732965175       16.4645713607
  O         1.7462223636        3.9802803272        3.4590643136
  O        14.6776688555        7.8742037273       -1.3547529302
  O        -0.2538822490       14.0477899429       12.3783081985
  O         2.0976403310        4.6336031126       -1.5245137099
  O         0.0817726936       11.4531756866        3.0772684065
  O         4.3571526151       -0.6525114452       -0.1247700416
  O         0.5125458572        4.7226809465       10.4557572997
  O        10.1695683043        0.4394459712       16.1599284531
  O         4.4605333765       17.0983016116       11.0512321032
  O        16.5004053880       12.4475349407        4.4378630623
  O        12.7419077322       16.9362217662        1.8969590843
  O        17.0767016022       -1.1479851497        9.2287925962
  O        16.2911279944        4.2079434813        1.6232675329
  O         3.3140124239       16.4682047559       -0.3520245624
  O        -0.1957757283        5.4634410083       -0.3466583576
  O         4.1507079851       12.3710283240       15.8233614594
  O        14.0559980126       14.8160917862       11.6774946982
  O        18.1220668026        2.2374312579        0.9279880632
  O         6.4580312310        0.8313484132        7.8624531100
  O         2.3652013186       14.5287802991        1.1764399544
  O        18.7771314433        4.3863808930        2.3862206296
  O        12.3117801303        7.9679750892       16.7127192555
  O         8.3813713114       -0.3728975869        2.3647375156
  O         6.3556919440       18.0022685768        9.2517776423
  O        10.3466578990       10.8486195511       16.5909165133
  O         3.5827591632       -1.1953049293        7.1880884351
  O         0.0916597634       11.4811946880       -1.8920522115
  O        12.5444787888       17.2835615180        4.4733113717
  O         3.0716035865        3.4731621588       14.4964879154
  O         3.1733885056        1.7166498261       -0.0339443454
  O        13.9498952376       13.2294593109        4.7720654105
  O        18.1695103103        2.6178916354        5.8546779823
  O        12.0956277283       14.8579129559        0.3035150684
  O        18.6052774987       -0.5894188185       11.4890055001
  O         5.5967154043       11.2597926062       -0.3591324996
  O         8.9998267134       -0.7754537346        4.8870285036
  O        16.2508610059        0.6269438412       11.1233506126
  O        14.8378532342       -0.2012013825       -1.8793165652
  O         6.1121410833       -1.2138465318        6.3407291551
  O        10.1744081000        1.2946598620       -0.6483353435
  O         4.1917632660       -0.5456885878        4.6350740232
  O        17.3773472944        5.3227450390       14.3148413328
  O        10.6614310781       17.2495356623        6.3558547143
  O         4.8061373695       13.7077702515       -1.2835474306
  O         2.4519603627       16.3475121301        3.6885430936
  O        13.7254067500        3.7456137328       -1.9049879216
  O         5.4241712461        6.3595521617       -0.5076914489
  O         5.8623272002        1.6770294680        0.1442726239
  O         1.4872774851        9.1661532873       13.1220152108
  O         8.4273758683       -1.0231880377        7.5017650073
  O         3.3654952420       14.5592225101       10.9915557768
  O         1.0223769645       16.8943840335        0.9072431860
  O         1.7436812587        7.8103977322       16.7399167091
  O         9.7787693296       13.8200951958        0.0382324409
  O        16.8179319357       10.8370635577        9.6951990590
  O        17.6176798666        1.4440447674       16.3451076388
  O         9.7372562340       15.7084033352       15.5782279668
  O        14.7266154690        1.1896650178        7.2333444697
  O        10.9253206622       17.8480124355       14.5737404650
  O         8.3432745997       17.3186208268       14.0592013001
  O         7.0973114362        7.0201382174       -2.6096398450
  O         3.8153491250       14.0523872844        3.5808440667
  O        10.3704765076       15.9954256818       12.8898604827
  O         1.9841333671       -0.8826708759       -1.5231414729
  O         3.8635487352        2.0344305945       12.4548704077
  O        15.7242842590        3.1429893592       15.8715059915
  O         3.1785779525       17.9461317787       14.7255120240
  O        17.5095553441        0.3837566380        4.9678033143
  O        17.2537784776       -0.9513687565       13.9930287847
  O         8.3522576567       10.9647672997       14.9192007043
  O        14.2965884330        5.5793449910       -0.2384945626
  O         5.0753213075        2.7360537008       10.0533045616
  O         0.3811410894       17.3010035997        8.4891784119
  O        12.9677483558       18.5216959379        6.5607442803
  O        11.9493853411        5.7301000979       -1.4154591429
  O        14.6095241921       -1.0869289295        8.5768699276
  O        16.6286963332       16.5867832722       15.8160014285
  O         7.8845985989       15.8456291504       -0.1979325730
  O         0.4085234699       13.4878865728       15.7391869739
  O         5.6368207686       10.4312348416       16.3522280810
  O         1.9413452514       16.6991606923       10.4580182683
  O         5.0109300055       16.2838182165        2.7443579263
  O         1.4238482040        2.7525506163        5.9088793772
  O         1.7188766450        1.2990543941        9.2612703409
  O         8.3535010572        4.7754227476       16.1632454061
  O        14.9236659743        7.9400642475       13.2426829848
  O         1.4608099568        8.3725276596        4.8196771268
  O         6.0440206674        3.5592170149       16.5643481887
  O        11.1967671160       14.2572089930       17.2510441901
  O        15.5364019600       14.9100633805        3.8860841321
  O        17.5882648941       11.9598333106       15.6206617100
  O         0.0795975757       10.4408518262        8.9716487027
  O        11.5472791239        5.7454883084       15.2153687263
  O         0.8887773278       18.0976181028       13.6006851359
  O        18.5951258410       12.5210073584       10.4977269083
  O         1.7606781552        7.1203847489       -0.1206879385
  O        18.6776939169        5.9464779495       16.4476879556
  O        -0.1157188338        2.8851977281        8.0279733069
  O         2.6189956644        7.3134016683       14.4625621819
  O        -0.5585677237        0.7047897484       13.8059413594
  O         0.7984367447       11.6251996415       12.3907148205
  O        14.4867663499       11.7270884055        0.0702493016
  O        10.4578661947       17.4810842691        2.9675830145
  O         1.4676110975        6.6355325694       12.2504684008
  O         0.0931123538        0.6714527113       -0.6099588766
  O        18.7196403740       15.4954441631       16.6687549943
  O         0.2403230214        0.2414844227        7.3181033913
  O         7.6102440494        0.3358712436       13.7099834272
  O         9.2523982439        2.1945550180       12.6502246681
  O        18.5184513070       16.5791809232       12.8390819234
  O        16.7512357243        6.2182902450       -0.9093893596
  O        14.8983272693       -0.8495650376       14.8394004885
  O        14.0373209860       12.7125823632       17.0767152313
  O        15.9387226120        2.0927899836       -1.1386173750
  O        -0.0185195739        7.2945027153       14.2786101445
  O        17.2834645194        3.2571951410       12.6801164200
  O         1.2782311011       17.4042879500        5.9587504985
  O         2.5609433595       12.0061795579        2.5680546866
  O        13.2042349371       10.1618668647       -1.6318179191
  O        16.6960665547       14.9356882453       11.6840468608
  O         4.4846610576       17.5227268382       16.8830215357
  O        14.1987482454       16.3513884159       -0.2225935510
  O        11.9918286518       12.3016759709       -0.4895313253
  O         7.6367776694        2.9723868550       14.5135548155
  O         6.8159733389       17.8490544101       11.9671621763
  O        17.0665239686       12.0809937429        0.8096171971
  O         2.6481278985       14.3021389964       16.4389122948
  O        15.8608676783       16.5191032011        1.6965810876
  O         2.1034224176       -0.4287753040        2.6716427516
  O         0.3149372541        4.4806747056       13.1647977933
  O        15.3051921699       17.0778297687       10.8164954038
  O        16.8646425897        7.7902832960       15.2613298519
  O         7.9570486936       10.8400964237       17.6787169860
  O        16.5036538116       10.0227540922       13.9656316360
  O        16.8001335862       16.3313339646       -0.9647831463
  O         0.8683964830       11.4766095776        0.5496265527
  O        18.7407568954       15.7262457968       10.2833920720
  O        19.5043722979        5.0485464267        6.4219753150
  O        16.8076915513       -0.0046788829        0.1323590175
  O        18.0827982497       -1.8319427055        6.3788256655
  O        18.0592731867       12.4553795265        7.8389656990
  O         1.1106994468       15.2361287465       -1.1148590591
  O         2.5714171994       12.2846290424       -1.3200197746
  O         5.4274739861       10.4202053571       13.9332033328
  O        11.5270377955       14.9914302980        3.4486537936
  O         6.1449304502        8.8322697695       -1.0322423379
  O         3.1000566405       11.4141245688       13.8798725874
  O        17.2479733347        2.4319397996        3.3189728549
  O        12.6550924279       -0.0857807070       15.9174365324
  O        -0.7152577346        8.4924925155        3.1709080345
  O        15.4382415952       12.5106919218       14.1993456522
  O        14.8842224246       12.9288445929        2.2691521718
  O        13.5271752998        4.1209345381       14.8049021948
  O        11.7021125999        2.1080464316       11.4687159055
  O        18.8147662043        3.0104566362       15.0032823994
  O         9.8566472757        7.0821275780       16.8089398735
  O        11.2340616276        3.7273503630       13.5433536863
  O        15.5448688394       16.3238470430       13.4353573281
  O        11.6334521562       17.4027207665       -0.4924667651
  O        -0.4058969209        8.4389027074       -0.8229236423
  O         0.2823229715        1.8563313151        3.6991166149
  O         5.1246994043        4.4212532697       12.9144506205
  O        14.6345277374        9.1209289271       15.7223379803
  O        15.7033778872       14.1675035936       -0.0139162215
  O         0.7114943636        0.6863669489       16.2068756462
  O         1.2843454833       14.7467323357        8.6920312830
  O        12.2884410984        3.6212136705        0.3275873376
  O         0.6280218338       10.9920352680       14.8568442971
  O         8.6925755334        5.7673765458       -0.7314129895
  O         2.8723633462        1.5965558025        4.0429660440
  O         1.8365376087        9.5580292741        2.5101903729
 Na        10.4854337630       11.0066463453       13.8748156851
 Na        18.7623850884       13.4791524784        0.8609254774
 Na        14.3881144808        3.0703468447        1.0181515227
 Na        17.6310520362       10.2873720493       -0.4526007359
 Na        18.5480351524        6.5978854819        5.0564145353
 Na        11.7775905249        0.2661493800        0.6425411601
 Na         6.2365454626        4.2560948295        0.0551157299
 Na        12.1300297990       14.6920903429       13.0015560143
 Na        -0.3347056622        5.8160019125        8.6163968004
 Na         0.6267446391       13.8089804487        6.8117281969
 Na        12.9550041240        9.9611034449        7.6357136089
 Na         4.9774366290        5.1947628841       15.3027265524
 Na        10.9963560017        3.0092328558        2.4087285943
 Na        13.7794324390        0.8114629104       10.7434477314
 Na        16.3648985594        1.3817597277       13.3604626152
 Na         0.4886225477        9.4400527723        6.6557707282
 Na        10.0002862371        3.6811090874       -1.0500923396
 Na         2.6215570890       13.8056653468       13.4663317306
 Na         8.4123106780        6.2506715081        7.2137650813
 Na        17.2849284094       14.3914021438        9.0141156176
 Na        -2.9888848491        9.5626103448       11.7052993509
 Na         9.2272224403        5.2831009834       13.8214502166
 Na         3.0175623474       15.9448349457        7.7384808774
 Na        15.5347131122        5.3249947951       12.3524746179
 Na         5.5802547567       16.4886929469        0.5726726842
 Na         3.2302741109       10.2027884880        4.2879872873
 Na         2.6316050427        3.6144460917        9.6183232106
 Na         1.2439229863        2.6582286483        0.2240343983
 Na        18.6008757591        7.5357650700        1.0713234959
 Na         1.5498823247       12.6452169420        9.5236280684
 Na         6.4548696732        9.5363134338        1.4721645939
 Na        14.1864748128       14.8362219711       17.0769841112
 Na        13.6237665816       15.2563193234        9.1409456031
 Na         7.6090056663       16.9133167135       17.2416185560
 Na         6.7338420945       -1.4909669055        3.6898995229
 Na        12.4378007172        1.7240885670       -1.9942950587
 Na         6.2342091262        0.8506092819       -2.0182963737
 Na         2.6053566467        6.4872198580        5.3829287557
 Na        15.3971920876       12.6447641619       11.4091773501
 Na         6.2658706523       13.7364327335        3.1686767085
 Na        14.6943839998       18.6088867672        2.2573538174
 Na         3.6136229068        6.8038091726        0.9832377876
 Na        -0.7903542322       13.4665528248        4.1579173357
 Na         2.7434558242        1.1294376126       14.3821315958
 Na         3.8608801481        0.5951959559        8.5120028440
 Na        13.3274850926       12.3396071727       15.1274256484
 Na        15.1304602977       15.7392292178        6.1169875823
 Na        16.5939527891        2.4896345946        7.5456372885
 Na         9.4321471189       -1.6514232359        0.5857764477
 Na         5.7889458711        1.7285753102        5.5205902517
 Na         8.0306440195        1.2633251676        0.7493878998
 Na         3.6913672927        2.9397688807       17.4391371653
 Na        18.0550217191        3.2332031004       10.7123877694
 Na        12.6517427083       13.2806176166        2.6291765196
 Na        11.3748186968       16.6813273295       -2.5494356444
 Na         7.0688153369        8.8763676168       15.0829725374
 Na         1.4588484497       -0.0958580382       11.0427537675
 Na        17.4209124419       10.5624278452        3.1837195275
 Na        17.0238881903       14.3076521622       15.0902284278
 Na         1.4012865157        4.6521598015       15.3767019182
 Si        -0.5019257405       12.4753600382       12.0629795778
 Si         3.4706003380       17.9356516585       -1.2241084054
 Si         5.5803976736       12.9096993526       -0.0660828195
 Si        15.1808082346        6.3276897209       -1.3759853598
 Si         0.8462150816        8.3490539666        3.3307675591
 Si        11.8110669499       16.5795678135        3.2286898605
 Si         5.7125917367       18.1198024995       10.7963206697
 Si         1.3771908672       11.1863924985       -1.0055550221
 Si         1.0978720742       16.4589970875        4.6303442347
 Si         3.5779475707       13.1483234313       17.1150872310
 Si        15.2333280131       15.8057418148       11.8816001816
 Si        18.1701538621       11.4762761390        9.1774324860
 Si        18.2927267893        0.6095798410        0.5673987826
 Si         8.8828105361       11.4450922130       16.3422839433
 Si         6.8359791754       -0.6811948017        7.7579818211
 Si        15.6661133437       15.8019236157        0.1782312325
 Si         0.3233729328        1.3192344643        8.5659511614
 Si         0.5131596937       -0.2812114901       -1.8849686847
 Si        18.0914133304        6.6661938809       15.0606105124
 Si         9.6742719670       -0.4819411980        3.3671698962
 Si        15.2445335073       13.2678936906        3.8604582828
 Si         5.7184782210        7.3685731412       -1.7260023958
 Si         4.4666015108        0.9594726093        0.5019848526
 Si        10.9101929764        2.2300599946       12.8827949670
 Si         5.1670619515        1.8420302689       11.4673382687
 Si         3.1723894724       16.0872400165       11.3415004190
 Si        16.6501016223       15.8796810649        3.0026887774
 Si         1.4415587234        5.5057030179       -0.3988336330
 Si        11.2308437392       13.7366629851       -0.6254280831
 Si         1.9326005065       15.7272835425        0.1882761130
 Si        13.5019119495       11.7617726019       -1.1715238893
 Si         1.1831753819        8.2937114144       -1.1803200976
 Si        18.0172653842        5.3591498613       -1.4727079002
 Si         8.2676009662       14.4671482733        0.5616540530
 Si         1.0480946125       15.0214185634       16.5509883262
 Si        17.7801718072       16.6524041758       17.0676571900
 Si         3.4340361925        0.2122186812        3.3202198900
 Si         7.0765742412       18.1490044291       13.5638971561
 Si        17.4671930587        0.0008347512       10.3993079971
 Si        14.0111904506       -0.9968199472       16.2350294348
 Si         3.2984711928       13.4664739692        2.1649392867
 Si        12.9101259310        4.5990451935       -0.7441547801
 Si         7.7917867193        1.9096426143       13.2981691739
 Si         3.9178669484       15.7497913551        3.8014169487
 Si         9.2389685973        0.8457825858       17.5033981694
 Si         8.4916779306        6.1099369388       -2.2010126200
 Si        12.2541756940       17.0936240927        6.0600760543
 Si        16.0792514237       17.4165632139       14.5046388486
 Si        17.0051155575       -1.1702825629        5.3074244760
 Si         1.6445170277        2.5591695294        4.3436526237
 Si         9.8508547827       16.7004401769       14.2298729161
 Si         4.5403857799       -0.9609039879       15.4810551434
 Si         7.4750983938        3.3522723533       16.1121739304
 Si        14.4884771211        4.2330702644       16.0869468003
 Si         9.0499933077       -1.8045825744        6.1683151504
 Si        18.3036025751       15.3732650692       11.8159352270
 Si        15.3656015992        0.6048253627       -0.6003703696
 Si        -0.1234536293       11.9560690223       15.9036761849
 Si         0.8699007804       18.0152359732        2.1231846848
 Si        15.6638283464        8.6564567213       14.4397119484
 Si        11.8426003930        4.1164553178       15.0541522048
 Si        18.2151229832        1.7093858778        4.4246251637
 Si        18.2739505528        3.9452752837       13.7436503832
 Si        15.7719313786       17.3025299618        9.1754826948
 Si         1.1571791582        5.0235571808       11.8383108595
 Si         1.6708365706       10.7395720850       13.6141492342
 Si         0.0531548323        3.4761321257        6.5224872581
 Si        18.8626574537        1.3760711588       15.2894783754
 Si         1.3434526312        7.6297817603       13.4711193994
 Si         4.3842597712       10.8578956671       15.1808999338
 Si        16.7892570366        2.5974724458       16.9907562371
 Si         0.1684107401       -1.3722054300        6.9720181534
 Si        17.5883408932        3.3536366232        2.0039117037
 Si        14.4713984571       -0.3972429586        7.0771577722
 Si         1.9756065840       17.0195908892       14.1744785036
 Si         4.5329004992       -1.5814828400        5.9440051269
 Si        10.2269831900       14.0249004072       15.8329742526
 Si         6.3465225175       10.4122581559       -1.6408001514
 Si        -0.7095876672       18.2698571278       13.0401866863
 Si         0.9412980338        4.9622802072        2.4690905509
 Si        12.6209147974       16.4503601372        0.3262915736
 Si         3.0792700243        8.0366968218       15.8498413357
 Si        16.7221907297       11.5866277185       14.2752924095
 Si        15.6221653110       12.6978856484        0.8045320805
 Si        11.2315163204       -0.0122284770       15.0750452669
 Si         3.6525366557        3.6654978248       13.0430975389
 Si        11.4065401179        6.5926460786       16.6113910779
 Si        13.7012954306        8.8190132178       17.0022524869
 Si         1.3134584526       11.1119422253        2.1543989235
 Si         0.7188635676       16.0478449919        9.4567492100
 Se         8.5307931462        4.6669610132        9.6877160353
 Se         4.9112491666        7.0986312114        3.5318755969
 Se         5.6614082046        4.2903489513        6.3036503651
 Se        11.0062974355        6.5000214956       11.7547685829
 Se         8.2672852219        4.1361291537        2.2163942857
 Se        11.0772692869        1.0909575819        7.9577159361
 Se         3.7617141778       10.6364814561       10.4862875587
 Se         9.0341247544        7.5964595100        4.5057343424
 Se         2.3145648674        7.1820716021        8.6039428607
 Se         8.1993203157       10.7040475264       11.2546697882
 Se        12.5271271443        5.4291185052        2.8633012915
 Se        11.6130257259        5.1530938467        7.3210411682
 Se        13.7930344171        8.0750262683        9.3018294338
 Se         6.6907905229        7.2910426485       12.9382801571
 Se        13.9830443777        1.8291940011        3.7403915308
 Se        15.0660992385        3.6597260023        9.8073135150
 Se         6.7039551971       11.0577708946        4.3896031667
 Se         2.9191571117       11.5660436805        6.6939150509
 Se         6.8169186452       12.9466940437        8.4888143982
 Se        10.2535414044        8.7845164719        1.2854463961
 Se         6.2423738365        8.2428444025        7.9099924223
 Se        10.1686437693        9.4886090915        8.3188479877
 Se         6.6068475399       14.4494755304       12.8299119927
 Se        15.2483110971        8.5457735047        2.0668953401
 Se        12.5698157133        9.3030676177        4.8612284348
 Se        17.7085641755        7.3150546314       10.7199014597
 Se        12.8920625093       11.0356984392       12.1697751279
 Se        15.7664954842        5.8094118973        5.9641673722
 Se         7.9138408209       15.6423798254        5.7652192714
 Se        10.7926377022       13.8617394166        9.9642380623
 Se        10.1626526051       12.4926990638        5.8371330061
 Se        14.2705030257       12.2964109032        8.2929354997
 Se        17.0131547057        9.2298878667        6.2163807390
 Cd         6.2973808180        8.6596424885        5.2932606366
 Cd         6.7537180540        5.1578738345        4.1013589759
 Cd         6.6044735534        3.1075143828        8.5613474912
 Cd         6.3734914805        4.9923150640       11.2832012214
 Cd        11.9433965679        1.0324460286        5.2876539917
 Cd        10.3234592218        2.7882837384        9.8111966895
 Cd         0.5625442843        8.5385874090        9.9343609460
 Cd         9.6635218810        9.9918758321        5.4220515976
 Cd         3.8626274945        9.3617510077        8.1587178644
 Cd         5.2521024178        9.3068449443       12.0384729056
 Cd         9.2015712706        6.4467625332        1.4224093415
 Cd        14.1513000201        4.1095270038        4.8805954453
 Cd        10.9643716536        7.1993989810        9.1755127686
 Cd         6.9246955193       11.9383825931       13.5744308277
 Cd        15.3345943057        6.0619976616        2.3264424073
 Cd        13.1623323927        2.6503339215        8.0275159245
 Cd         5.4249634663       12.1809833554        6.3085977262
 Cd         5.2797509269       13.0958098934       10.7828769445
 Cd         9.0845023497       14.5546315726       11.7745776312
 Cd        10.4993902460        9.8039910749       -1.0033609604
 Cd        11.6793109626        6.8760203850        5.3353670500
 Cd         8.8014669989        8.1025926764       11.6594887119
 Cd        10.9260084708       11.2055741758       10.4000646043
 Cd        12.5774238415        8.1780905277        2.4415877941
 Cd        15.1122577051        8.2503795821        4.8815276198
 Cd        13.0398350707        8.3751779696       11.8891341171
 Cd        16.5611178707        8.6755396416        8.7929720978
 Cd        14.2440444423        5.6197004582        8.3254366075
 Cd         9.4731109633       14.3796424452        3.8442826496
 Cd         9.2215992740       13.8812025354        7.8087411048
 Cd        12.6163132623       13.4045141972        6.4358694594
 Cd         7.5647826168       10.3357648280        8.7373623195
 Cd        16.2322770746       11.7700647486        6.6751992666
