date Sun May 3 22:20:37 CEST 2020
master hostname r1i7n5
master system Linux r1i7n5 3.10.0-957.46.1.el7.x86_64 #1 SMP Wed Jan 15 08:14:48 EST 2020 x86_64 x86_64 x86_64 GNU/Linux
user utg54rf
output data in /linkhome/rech/genirc01/utg54rf/Shane/OT136/pressure_opt/1.5GPa/ot136.out
Pcrystal executable in /gpfslocalsup/prod/crystal/1.0.2/bin
input data in /linkhome/rech/genirc01/utg54rf/Shane/OT136/pressure_opt/1.5GPa/ot136.d12
Running on nodes: r1i7n32 r1i7n5 r2i2n32
creating temporary directories /gpfsscratch/rech/drd/utg54rf/1697194/tmp_p102984_utg54rf on each node
copying input file on each node
CRYSTAL data /linkhome/rech/genirc01/utg54rf/Shane/OT136/pressure_opt/1.5GPa/ot136.f9 not found or empty
external geometry input from /linkhome/rech/genirc01/utg54rf/Shane/OT136/pressure_opt/1.5GPa/ot136.gui
external geometry input saved in /linkhome/rech/genirc01/utg54rf/Shane/OT136/pressure_opt/1.5GPa/ot136_inp.gui
MUF15_P
EXTERNAL
OPTGEOM
FULLOPTG
EXTPRESS
-0.0000510
MAXCYCLE
400
ENDOPT
BASISSET
POB-DZVP
DFT
PBESOL0
ENDDFT
MAXCYCLE
250
FMIXING
70
LEVSHIFT
5 0
SHRINK
1 1
BIPOSIZE
6900000
END
Sun May  3 22:20:42 CEST 2020
         120 PROCESSORS WORKING

         
 *******************************************************************************
 *                                                                             *
 *                               CRYSTAL17                                     *
 *                      public : 1.0.2 - March 1st, 2018                       *
 *                       HTTP://WWW.CRYSTAL.UNITO.IT                           *
 *                                                                             *
 *                              MAIN AUTHORS                                   *
 *                                                                             *
 *  R. DOVESI(1,11), V.R. SAUNDERS(2), C. ROETTI(1,11), R. ORLANDO(1,11),      *
 *  C.M. ZICOVICH-WILSON(1,3), F. PASCALE(4), B. CIVALLERI(1,11),              *
 *  K. DOLL(5), N.M. HARRISON(2,6), I.J. BUSH(7), Ph. D'ARCO(8),               *
 *  M. LLUNELL(9), M. CAUSA'(10), Y. NOEL(8), L. MASCHIO(1,11), A. ERBA(1,11)  *
 *  M. RE'RAT(14), S. CASASSA(1,11)                                            *
 *                                                                             *
 *        CONTRIBUTIONS TO THE CODE HAVE ALSO BEEN GIVEN BY                    *
 *                                                                             *
 *  M. FERRABONE(1,11), M. DE LA PIERRE(1,11), M. FERRERO(1,11),               *
 *  J. BAIMA(1,11), E. ALBANESE(1,11), M.F. PEINTINGER(12), R. BAST(13),       *
 *  B. KIRTMAN(15), V. LACIVITA(1,11), R. DEMICHELIS(1,16)                     *
 *  G. BRANDEBURG(17), S. SALUSTRO(1,11), G. SANSONE(1,11)                     *
 *  M.T. RUGGIERO(18)                                                          *
 *                                                                             *
 * (1) THEORETICAL CHEMISTRY GROUP - UNIVERSITA' DI TORINO - TORINO (ITALY)    *
 * (2) COMPUTATIONAL SCIENCE & ENGINEERING DEPARTMENT - STFC DARESBURY (UK)    *
 * (3) UNIVERSIDAD AUTONOMA DEL ESTADO DE MORELOS - CUERNAVACA (MEXICO)        *
 * (4) UNIVERSITE' DE LORRAINE - NANCY (FRANCE)                                *
 * (5) UNIVERSITAET STUTTGART- STUTTGART (GERMANY)                             *
 * (6) IMPERIAL COLLEGE - LONDON (UK)                                          *
 * (7) OXFORD E-RESEARCH CENTRE - OXFORD (UK)                                  *
 * (8) UPMC - SORBONNE UNIVERSITES - PARIS (FRANCE)                            *
 * (9) UNIVERSIDAD DE BARCELONA - BARCELONA (SPAIN)                            *
 *(10) UNIVERSITA' DI NAPOLI "FEDERICO II" - NAPOLI (ITALY)                    *
 *(11) NIS - NANOSTRUCTURED INTERFACES AND SURFACES - TORINO (ITALY)           *
 *(12) MPI FUER CHEMISCHE ENERGIEKONVERSION - MUELHEIM AN DER RUHR (GERMANY)   *
 *(13) UNIVERSITY OF TROMSO - TROMSO (NORWAY)                                  *
 *(14) UNIVERSITE' DE PAU ET DES PAYS DE L'ADOUR - PAU (FRANCE)                *
 *(15) UNIVERSITY OF CALIFORNIA SANTA BARBARA - SANTA BARBARA (USA)            *
 *(16) CURTIN UNIVERSITY - PERTH (AUSTRALIA)                                   *
 *(17) UNIVERSITY COLLEGE LONDON - LONDON (UK)                                 *
 *(18) CAMBRIDGE UNIVERSITY - CAMBRIDGE (UK)                                   *
 *                                                                             *
 *******************************************************************************
 EEEEEEEEEE STARTING  DATE 03 05 2020 TIME 22:20:43.1
 Shawn                                                                           

 GEOMETRY INPUT FROM EXTERNAL FILE (FORTRAN UNIT 34)
 3D - CRYSTAL 

 *******************************************************************************
 LATTICE PARAMETERS  (ANGSTROMS AND DEGREES) - PRIMITIVE CELL
       A          B          C        ALPHA      BETA     GAMMA        VOLUME
   27.84117   20.15866   11.14577    90.00000  90.00000  90.00000   6255.461574

 NUMBER OF IRREDUCIBLE ATOMS IN THE CELL:   53

 CARTESIAN COORDINATES (ANGSTROM) - IRREDUCIBLE ATOMS AND SYMMETRY RELATED

 AT.IRR.  AT  AT.N.          X                   Y                   Z
     1     1    27    1.068278208649E+01  9.268380770996E+00 -2.675244532510E+00
     1     2    27    3.237805306598E+00 -9.268380770996E+00 -2.675244532510E+00
     1     3    27    1.068278208649E+01  8.109473153470E-01 -2.897642384284E+00
     1     4    27    3.237805306598E+00 -8.109473153270E-01 -2.897642384284E+00
     1     5    27   -1.068278208649E+01 -9.268380770996E+00  2.675244532510E+00
     1     6    27   -3.237805306598E+00  9.268380770996E+00  2.675244532510E+00
     1     7    27   -1.068278208649E+01 -8.109473153270E-01  2.897642384304E+00
     1     8    27   -3.237805306598E+00  8.109473153470E-01  2.897642384304E+00
     9     9    27    1.174688272570E+01  9.208078041576E+00  5.136085369465E+00
     9    10    27    2.173704667388E+00 -9.208078041576E+00  5.136085369465E+00
     9    11    27    1.174688272570E+01  8.712500447680E-01  4.368015473500E-01
     9    12    27    2.173704667388E+00 -8.712500447470E-01  4.368015473500E-01
     9    13    27   -1.174688272570E+01 -9.208078041576E+00 -5.136085369465E+00
     9    14    27   -2.173704667388E+00  9.208078041576E+00 -5.136085369465E+00
     9    15    27   -1.174688272570E+01 -8.712500447470E-01 -4.368015473300E-01
     9    16    27   -2.173704667388E+00  8.712500447680E-01 -4.368015473300E-01
    17    17    27    1.267654154162E+01 -9.213920403382E+00 -4.458153998055E+00
    17    18    27    1.244045851472E+00  9.213920403382E+00 -4.458153998055E+00
    17    19    27    1.267654154162E+01 -8.654076829410E-01 -1.114732918740E+00
    17    20    27    1.244045851472E+00  8.654076829610E-01 -1.114732918740E+00
    17    21    27   -1.267654154162E+01  9.213920403382E+00  4.458153998055E+00
    17    22    27   -1.244045851472E+00 -9.213920403382E+00  4.458153998055E+00
    17    23    27   -1.267654154162E+01  8.654076829610E-01  1.114732918760E+00
    17    24    27   -1.244045851472E+00 -8.654076829410E-01  1.114732918760E+00
    25    25     6    4.900193638435E+00 -8.677716149203E+00  6.243735844597E+00
    25    26     6    9.020393754654E+00  8.677716149203E+00  6.243735844597E+00
    25    27     6    4.900193638435E+00 -1.401611937120E+00 -6.708489277820E-01
    25    28     6    9.020393754654E+00  1.401611937140E+00 -6.708489277820E-01
    25    29     6   -4.900193638435E+00  8.677716149203E+00 -6.243735844597E+00
    25    30     6   -9.020393754654E+00 -8.677716149203E+00 -6.243735844597E+00
    25    31     6   -4.900193638435E+00  1.401611937140E+00  6.708489278020E-01
    25    32     6   -9.020393754654E+00 -1.401611937120E+00  6.708489278020E-01
    33    33     6    6.286777501952E+00 -8.634896017360E+00  5.746246455919E+00
    33    34     6    7.633809891137E+00  8.634896017360E+00  5.746246455919E+00
    33    35     6    6.286777501952E+00 -1.444432068963E+00 -1.733595391040E-01
    33    36     6    7.633809891137E+00  1.444432068983E+00 -1.733595391040E-01
    33    37     6   -6.286777501952E+00  8.634896017360E+00 -5.746246455919E+00
    33    38     6   -7.633809891137E+00 -8.634896017360E+00 -5.746246455919E+00
    33    39     6   -6.286777501952E+00  1.444432068983E+00  1.733595391240E-01
    33    40     6   -7.633809891137E+00 -1.444432068963E+00  1.733595391240E-01
    41    41     6    6.468754072579E+00 -8.651653235833E+00  4.371125160033E+00
    41    42     6    7.451833320510E+00  8.651653235833E+00  4.371125160033E+00
    41    43     6    6.468754072579E+00 -1.427674850490E+00  1.201761756782E+00
    41    44     6    7.451833320510E+00  1.427674850511E+00  1.201761756782E+00
    41    45     6   -6.468754072579E+00  8.651653235833E+00 -4.371125160033E+00
    41    46     6   -7.451833320510E+00 -8.651653235833E+00 -4.371125160033E+00
    41    47     6   -6.468754072579E+00  1.427674850511E+00 -1.201761756762E+00
    41    48     6   -7.451833320510E+00 -1.427674850490E+00 -1.201761756762E+00
    49    49     6    7.399550488821E+00 -8.613482942614E+00 -4.568186861071E+00
    49    50     6    6.521036904267E+00  8.613482942614E+00 -4.568186861071E+00
    49    51     6    7.399550488821E+00 -1.465845143709E+00 -1.004700055724E+00
    49    52     6    6.521036904267E+00  1.465845143729E+00 -1.004700055724E+00
    49    53     6   -7.399550488821E+00  8.613482942614E+00  4.568186861071E+00
    49    54     6   -6.521036904267E+00 -8.613482942614E+00  4.568186861071E+00
    49    55     6   -7.399550488821E+00  1.465845143729E+00  1.004700055744E+00
    49    56     6   -6.521036904267E+00 -1.465845143709E+00  1.004700055744E+00
    57    57     6    7.735343005814E+00 -8.539134505542E+00  3.823973288084E+00
    57    58     6    6.185244387275E+00  8.539134505542E+00  3.823973288084E+00
    57    59     6    7.735343005814E+00 -1.540193580781E+00  1.748913628731E+00
    57    60     6    6.185244387275E+00  1.540193580801E+00  1.748913628731E+00
    57    61     6   -7.735343005814E+00  8.539134505542E+00 -3.823973288084E+00
    57    62     6   -6.185244387275E+00 -8.539134505542E+00 -3.823973288084E+00
    57    63     6   -7.735343005814E+00  1.540193580801E+00 -1.748913628711E+00
    57    64     6   -6.185244387275E+00 -1.540193580781E+00 -1.748913628711E+00
    65    65     6    8.674575749534E+00 -8.558472389026E+00  6.032164956850E+00
    65    66     6    5.246011643555E+00  8.558472389026E+00  6.032164956850E+00
    65    67     6    8.674575749534E+00 -1.520855697297E+00 -4.592780400350E-01
    65    68     6    5.246011643555E+00  1.520855697317E+00 -4.592780400350E-01
    65    69     6   -8.674575749534E+00  8.558472389026E+00 -6.032164956850E+00
    65    70     6   -5.246011643555E+00 -8.558472389026E+00 -6.032164956850E+00
    65    71     6   -8.674575749534E+00  1.520855697317E+00  4.592780400550E-01
    65    72     6   -5.246011643555E+00 -1.520855697297E+00  4.592780400550E-01
    73    73     6    8.837954247185E+00 -8.484740654007E+00  4.651144602867E+00
    73    74     6    5.082633145903E+00  8.484740654007E+00  4.651144602867E+00
    73    75     6    8.837954247185E+00 -1.594587432316E+00  9.217423139480E-01
    73    76     6    5.082633145903E+00  1.594587432336E+00  9.217423139480E-01
    73    77     6   -8.837954247185E+00  8.484740654007E+00 -4.651144602867E+00
    73    78     6   -5.082633145903E+00 -8.484740654007E+00 -4.651144602867E+00
    73    79     6   -8.837954247185E+00  1.594587432336E+00 -9.217423139270E-01
    73    80     6   -5.082633145903E+00 -1.594587432316E+00 -9.217423139270E-01
    81    81     6    9.889335829953E+00 -8.741873792788E+00 -4.310817137768E+00
    81    82     6    4.031251563136E+00  8.741873792788E+00 -4.310817137768E+00
    81    83     6    9.889335829953E+00 -1.337454293535E+00 -1.262069779027E+00
    81    84     6    4.031251563136E+00  1.337454293555E+00 -1.262069779027E+00
    81    85     6   -9.889335829953E+00  8.741873792788E+00  4.310817137768E+00
    81    86     6   -4.031251563136E+00 -8.741873792788E+00  4.310817137768E+00
    81    87     6   -9.889335829953E+00  1.337454293555E+00  1.262069779047E+00
    81    88     6   -4.031251563136E+00 -1.337454293535E+00  1.262069779047E+00
    89    89     6    1.259011920547E+01 -9.049569600762E+00 -1.490539494587E+00
    89    90     6    1.330468187617E+00  9.049569600762E+00 -1.490539494587E+00
    89    91     6    1.259011920547E+01 -1.029758485561E+00 -4.082347422208E+00
    89    92     6    1.330468187617E+00  1.029758485582E+00 -4.082347422208E+00
    89    93     6   -1.259011920547E+01  9.049569600762E+00  1.490539494587E+00
    89    94     6   -1.330468187617E+00 -9.049569600762E+00  1.490539494587E+00
    89    95     6   -1.259011920547E+01  1.029758485582E+00  4.082347422228E+00
    89    96     6   -1.330468187617E+00 -1.029758485561E+00  4.082347422228E+00
    97    97     6    1.286143888027E+01 -9.374977448312E+00  9.216526868630E-01
    97    98     6    1.059148512815E+00  9.374977448312E+00  9.216526868630E-01
    97    99     6    1.286143888027E+01 -7.043506380110E-01  4.651234229952E+00
    97   100     6    1.059148512815E+00  7.043506380310E-01  4.651234229952E+00
    97   101     6   -1.286143888027E+01  9.374977448312E+00 -9.216526868630E-01
    97   102     6   -1.059148512815E+00 -9.374977448312E+00 -9.216526868630E-01
    97   103     6   -1.286143888027E+01  7.043506380310E-01 -4.651234229932E+00
    97   104     6   -1.059148512815E+00 -7.043506380110E-01 -4.651234229932E+00
   105   105     6    1.266885597675E+01 -9.794861884331E+00  3.309559736831E+00
   105   106     6    1.251731416342E+00  9.794861884331E+00  3.309559736831E+00
   105   107     6    1.266885597675E+01 -2.844662019920E-01  2.263327179983E+00
   105   108     6    1.251731416342E+00  2.844662020120E-01  2.263327179983E+00
   105   109     6   -1.266885597675E+01  9.794861884331E+00 -3.309559736831E+00
   105   110     6   -1.251731416342E+00 -9.794861884331E+00 -3.309559736831E+00
   105   111     6   -1.266885597675E+01  2.844662020120E-01 -2.263327179963E+00
   105   112     6   -1.251731416342E+00 -2.844662019920E-01 -2.263327179963E+00
   113   113     6    1.300891090310E+01 -8.533544305547E+00 -1.683848621240E-01
   113   114     6    9.116764899890E-01  8.533544305547E+00 -1.683848621240E-01
   113   115     6    1.300891090310E+01 -1.545783780776E+00 -5.404502054671E+00
   113   116     6    9.116764899890E-01  1.545783780796E+00 -5.404502054671E+00
   113   117     6   -1.300891090310E+01  8.533544305547E+00  1.683848621240E-01
   113   118     6   -9.116764899890E-01 -8.533544305547E+00  1.683848621240E-01
   113   119     6   -1.300891090310E+01  1.545783780796E+00  5.404502054691E+00
   113   120     6   -9.116764899890E-01 -1.545783780776E+00  5.404502054691E+00
   121   121     6    1.311253941290E+01 -8.930743632717E+00  2.208874381402E+00
   121   122     6    8.080479801880E-01  8.930743632717E+00  2.208874381402E+00
   121   123     6    1.311253941290E+01 -1.148584453606E+00  3.364012535413E+00
   121   124     6    8.080479801880E-01  1.148584453626E+00  3.364012535413E+00
   121   125     6   -1.311253941290E+01  8.930743632717E+00 -2.208874381402E+00
   121   126     6   -8.080479801880E-01 -8.930743632717E+00 -2.208874381402E+00
   121   127     6   -1.311253941290E+01  1.148584453626E+00 -3.364012535393E+00
   121   128     6   -8.080479801880E-01 -1.148584453606E+00 -3.364012535393E+00
   129   129     6    1.342152853189E+01 -7.216937893552E+00  1.260207068000E-02
   129   130     6    4.990588611980E-01  7.216937893552E+00  1.260207068000E-02
   129   131     6    1.342152853189E+01 -2.862390192771E+00 -5.585488987475E+00
   129   132     6    4.990588611980E-01  2.862390192792E+00 -5.585488987475E+00
   129   133     6   -1.342152853189E+01  7.216937893552E+00 -1.260207068000E-02
   129   134     6   -4.990588611980E-01 -7.216937893552E+00 -1.260207068000E-02
   129   135     6   -1.342152853189E+01  2.862390192792E+00  5.585488987495E+00
   129   136     6   -4.990588611980E-01 -2.862390192771E+00  5.585488987495E+00
   137   137     6    1.347748439399E+01 -7.602906985181E+00  2.416928811585E+00
   137   138     6    4.431029990980E-01  7.602906985181E+00  2.416928811585E+00
   137   139     6    1.347748439399E+01 -2.476421101142E+00  3.155958105230E+00
   137   140     6    4.431029990980E-01  2.476421101162E+00  3.155958105230E+00
   137   141     6   -1.347748439399E+01  7.602906985181E+00 -2.416928811585E+00
   137   142     6   -4.431029990980E-01 -7.602906985181E+00 -2.416928811585E+00
   137   143     6   -1.347748439399E+01  2.476421101162E+00 -3.155958105210E+00
   137   144     6   -4.431029990980E-01 -2.476421101142E+00 -3.155958105210E+00
   145   145     6    1.364127146757E+01 -6.758513748500E+00  1.312297364009E+00
   145   146     6    2.793159255220E-01  6.758513748500E+00  1.312297364009E+00
   145   147     6    1.364127146757E+01 -3.320814337823E+00  4.260589552805E+00
   145   148     6    2.793159255220E-01  3.320814337843E+00  4.260589552805E+00
   145   149     6   -1.364127146757E+01  6.758513748500E+00 -1.312297364009E+00
   145   150     6   -2.793159255220E-01 -6.758513748500E+00 -1.312297364009E+00
   145   151     6   -1.364127146757E+01  3.320814337843E+00 -4.260589552785E+00
   145   152     6   -2.793159255220E-01 -3.320814337823E+00 -4.260589552785E+00
   153   153     6    1.344029718921E+01  6.995671400462E+00  4.451759486984E+00
   153   154     6    4.802902038740E-01 -6.995671400462E+00  4.451759486984E+00
   153   155     6    1.344029718921E+01  3.083656685882E+00  1.121127429831E+00
   153   156     6    4.802902038740E-01 -3.083656685861E+00  1.121127429831E+00
   153   157     6   -1.344029718921E+01 -6.995671400462E+00 -4.451759486984E+00
   153   158     6   -4.802902038740E-01  6.995671400462E+00 -4.451759486984E+00
   153   159     6   -1.344029718921E+01 -3.083656685861E+00 -1.121127429811E+00
   153   160     6   -4.802902038740E-01  3.083656685882E+00 -1.121127429811E+00
   161   161     6    1.334540459533E+01  5.039664043172E+00  2.786443458407E+00
   161   162     6    5.751827977610E-01 -5.039664043172E+00  2.786443458407E+00
   161   163     6   -1.334540459533E+01 -5.039664043172E+00 -2.786443458407E+00
   161   164     6   -5.751827977610E-01  5.039664043172E+00 -2.786443458407E+00
   165   165     6   -1.379431771914E+01  5.914660996654E+00  3.626773355333E+00
   165   166     6   -1.262696739470E-01 -5.914660996654E+00  3.626773355333E+00
   165   167     6   -1.379431771914E+01  4.164667089689E+00  1.946113561482E+00
   165   168     6   -1.262696739470E-01 -4.164667089669E+00  1.946113561482E+00
   165   169     6    1.379431771914E+01 -5.914660996654E+00 -3.626773355333E+00
   165   170     6    1.262696739470E-01  5.914660996654E+00 -3.626773355333E+00
   165   171     6    1.379431771914E+01 -4.164667089669E+00 -1.946113561462E+00
   165   172     6    1.262696739470E-01  4.164667089689E+00 -1.946113561462E+00
   173   173     6   -1.240208564326E+01  5.863321759613E+00  3.654201753488E+00
   173   174     6   -1.518501749827E+00 -5.863321759613E+00  3.654201753488E+00
   173   175     6   -1.240208564326E+01  4.216006326730E+00  1.918685163327E+00
   173   176     6   -1.518501749827E+00 -4.216006326710E+00  1.918685163327E+00
   173   177     6    1.240208564326E+01 -5.863321759613E+00 -3.654201753488E+00
   173   178     6    1.518501749827E+00  5.863321759613E+00 -3.654201753488E+00
   173   179     6    1.240208564326E+01 -4.216006326710E+00 -1.918685163307E+00
   173   180     6    1.518501749827E+00  4.216006326730E+00 -1.918685163307E+00
   181   181     6   -1.171157532926E+01  5.039664043172E+00  2.786443458407E+00
   181   182     6   -2.209012063824E+00 -5.039664043172E+00  2.786443458407E+00
   181   183     6    1.171157532926E+01 -5.039664043172E+00 -2.786443458407E+00
   181   184     6    2.209012063824E+00  5.039664043172E+00 -2.786443458407E+00
   185   185     1    5.583568904136E+00 -8.741530866676E+00  3.759689858201E+00
   185   186     1    8.337018488953E+00  8.741530866676E+00  3.759689858201E+00
   185   187     1    5.583568904136E+00 -1.337797219647E+00  1.813197058613E+00
   185   188     1    8.337018488953E+00  1.337797219667E+00  1.813197058613E+00
   185   189     1   -5.583568904136E+00  8.741530866676E+00 -3.759689858201E+00
   185   190     1   -8.337018488953E+00 -8.741530866676E+00 -3.759689858201E+00
   185   191     1   -5.583568904136E+00  1.337797219667E+00 -1.813197058593E+00
   185   192     1   -8.337018488953E+00 -1.337797219647E+00 -1.813197058593E+00
   193   193     1    7.283744243901E+00 -8.626627413437E+00 -3.493809309967E+00
   193   194     1    6.636843149188E+00  8.626627413437E+00 -3.493809309967E+00
   193   195     1    7.283744243901E+00 -1.452700672886E+00 -2.079077606828E+00
   193   196     1    6.636843149188E+00  1.452700672906E+00 -2.079077606828E+00
   193   197     1   -7.283744243901E+00  8.626627413437E+00  3.493809309967E+00
   193   198     1   -6.636843149188E+00 -8.626627413437E+00  3.493809309967E+00
   193   199     1   -7.283744243901E+00  1.452700672906E+00  2.079077606848E+00
   193   200     1   -6.636843149188E+00 -1.452700672886E+00  2.079077606848E+00
   201   201     1    8.506985620756E+00  8.984223514875E+00 -1.930830736080E+00
   201   202     1    5.413601772332E+00 -8.984223514875E+00 -1.930830736080E+00
   201   203     1    8.506985620756E+00  1.095104571468E+00 -3.642056180715E+00
   201   204     1    5.413601772332E+00 -1.095104571448E+00 -3.642056180715E+00
   201   205     1   -8.506985620756E+00 -8.984223514875E+00  1.930830736080E+00
   201   206     1   -5.413601772332E+00  8.984223514875E+00  1.930830736080E+00
   201   207     1   -8.506985620756E+00 -1.095104571448E+00  3.642056180735E+00
   201   208     1   -5.413601772332E+00  1.095104571468E+00  3.642056180735E+00
   209   209     1    7.857412711459E+00 -8.482965110941E+00  2.749802201273E+00
   209   210     1    6.063174681629E+00  8.482965110941E+00  2.749802201273E+00
   209   211     1    7.857412711459E+00 -1.596362975382E+00  2.823084715542E+00
   209   212     1    6.063174681629E+00  1.596362975402E+00  2.823084715542E+00
   209   213     1   -7.857412711459E+00  8.482965110941E+00 -2.749802201273E+00
   209   214     1   -6.063174681629E+00 -8.482965110941E+00 -2.749802201273E+00
   209   215     1   -7.857412711459E+00  1.596362975402E+00 -2.823084715522E+00
   209   216     1   -6.063174681629E+00 -1.596362975382E+00 -2.823084715522E+00
   217   217     1    9.099984943316E+00 -1.015901855895E+01 -8.324855664940E-01
   217   218     1    4.820602449773E+00  1.015901855895E+01 -8.324855664940E-01
   217   219     1    9.099984943316E+00  7.969047262500E-02 -4.740401350301E+00
   217   220     1    4.820602449773E+00 -7.969047260500E-02 -4.740401350301E+00
   217   221     1   -9.099984943316E+00  1.015901855895E+01  8.324855664940E-01
   217   222     1   -4.820602449773E+00 -1.015901855895E+01  8.324855664940E-01
   217   223     1   -9.099984943316E+00 -7.969047260500E-02  4.740401350321E+00
   217   224     1   -4.820602449773E+00  7.969047262500E-02  4.740401350321E+00
   225   225     1    9.842427292191E+00 -8.426907479446E+00  4.254348306966E+00
   225   226     1    4.078160100898E+00  8.426907479446E+00  4.254348306966E+00
   225   227     1    9.842427292191E+00 -1.652420606876E+00  1.318538609849E+00
   225   228     1    4.078160100898E+00  1.652420606897E+00  1.318538609849E+00
   225   229     1   -9.842427292191E+00  8.426907479446E+00 -4.254348306966E+00
   225   230     1   -4.078160100898E+00 -8.426907479446E+00 -4.254348306966E+00
   225   231     1   -9.842427292191E+00  1.652420606897E+00 -1.318538609829E+00
   225   232     1   -4.078160100898E+00 -1.652420606876E+00 -1.318538609829E+00
   233   233     1    1.068113673468E+01  7.231722195140E+00 -1.311932694024E+00
   233   234     1    3.239450658404E+00 -7.231722195140E+00 -1.311932694024E+00
   233   235     1    1.068113673468E+01  2.847605891204E+00 -4.260954222770E+00
   233   236     1    3.239450658404E+00 -2.847605891183E+00 -4.260954222770E+00
   233   237     1   -1.068113673468E+01 -7.231722195140E+00  1.311932694024E+00
   233   238     1   -3.239450658404E+00  7.231722195140E+00  1.311932694024E+00
   233   239     1   -1.068113673468E+01 -2.847605891183E+00  4.260954222791E+00
   233   240     1   -3.239450658404E+00  2.847605891204E+00  4.260954222791E+00
   241   241     1    1.223784819827E+01  7.551204202415E+00 -1.586095564729E+00
   241   242     1    1.682739194818E+00 -7.551204202415E+00 -1.586095564729E+00
   241   243     1    1.223784819827E+01  2.528123883929E+00 -3.986791352066E+00
   241   244     1    1.682739194818E+00 -2.528123883909E+00 -3.986791352066E+00
   241   245     1   -1.223784819827E+01 -7.551204202415E+00  1.586095564729E+00
   241   246     1   -1.682739194818E+00  7.551204202415E+00  1.586095564729E+00
   241   247     1   -1.223784819827E+01 -2.528123883909E+00  3.986791352086E+00
   241   248     1   -1.682739194818E+00  2.528123883929E+00  3.986791352086E+00
   249   249     1    1.252023838483E+01  9.772194627595E+00  7.509820373220E-01
   249   250     1    1.400349008255E+00 -9.772194627595E+00  7.509820373220E-01
   249   251     1    1.252023838483E+01  3.071334587480E-01  4.821904879493E+00
   249   252     1    1.400349008255E+00 -3.071334587280E-01  4.821904879493E+00
   249   253     1   -1.252023838483E+01 -9.772194627595E+00 -7.509820373220E-01
   249   254     1   -1.400349008255E+00  9.772194627595E+00 -7.509820373220E-01
   249   255     1   -1.252023838483E+01 -3.071334587280E-01 -4.821904879473E+00
   249   256     1   -1.400349008255E+00  3.071334587480E-01 -4.821904879473E+00
   257   257     1    1.226094154098E+01  5.039664043172E+00  2.786443458407E+00
   257   258     1    1.659645852109E+00 -5.039664043172E+00  2.786443458407E+00
   257   259     1   -1.226094154098E+01 -5.039664043172E+00 -2.786443458407E+00
   257   260     1   -1.659645852109E+00  5.039664043172E+00 -2.786443458407E+00
   261   261     1    1.347496828981E+01 -6.539014440152E+00 -8.435327497690E-01
   261   262     1    4.456191032830E-01  6.539014440152E+00 -8.435327497690E-01
   261   263     1    1.347496828981E+01 -3.540313646171E+00 -4.729354167026E+00
   261   264     1    4.456191032830E-01  3.540313646191E+00 -4.729354167026E+00
   261   265     1   -1.347496828981E+01  6.539014440152E+00  8.435327497690E-01
   261   266     1   -4.456191032830E-01 -6.539014440152E+00  8.435327497690E-01
   261   267     1   -1.347496828981E+01  3.540313646191E+00  4.729354167046E+00
   261   268     1   -4.456191032830E-01 -3.540313646171E+00  4.729354167046E+00
   269   269     1    1.351065192281E+01 -7.218230844289E+00  3.435882602998E+00
   269   270     1    4.099354702810E-01  7.218230844289E+00  3.435882602998E+00
   269   271     1    1.351065192281E+01 -2.861097242035E+00  2.137004313817E+00
   269   272     1    4.099354702810E-01  2.861097242055E+00  2.137004313817E+00
   269   273     1   -1.351065192281E+01  7.218230844289E+00 -3.435882602998E+00
   269   274     1   -4.099354702810E-01 -7.218230844289E+00 -3.435882602998E+00
   269   275     1   -1.351065192281E+01  2.861097242055E+00 -2.137004313797E+00
   269   276     1   -4.099354702810E-01 -2.861097242035E+00 -2.137004313797E+00
   277   277     1   -1.401757553228E+01 -5.700801947580E+00  1.471035619507E+00
   277   278     1    9.698813918800E-02  5.700801947580E+00  1.471035619507E+00
   277   279     1   -1.401757553228E+01 -4.378526138743E+00  4.101851297307E+00
   277   280     1    9.698813918800E-02  4.378526138763E+00  4.101851297307E+00
   277   281     1    1.401757553228E+01  5.700801947580E+00 -1.471035619507E+00
   277   282     1   -9.698813918800E-02 -5.700801947580E+00 -1.471035619507E+00
   277   283     1    1.401757553228E+01  4.378526138763E+00 -4.101851297287E+00
   277   284     1   -9.698813918800E-02 -4.378526138743E+00 -4.101851297287E+00
   285   285     1   -1.188169549588E+01  6.523601616646E+00  4.337923958925E+00
   285   286     1   -2.038891897206E+00 -6.523601616646E+00  4.337923958925E+00
   285   287     1   -1.188169549588E+01  3.555726469697E+00  1.234962957890E+00
   285   288     1   -2.038891897206E+00 -3.555726469677E+00  1.234962957890E+00
   285   289     1    1.188169549588E+01 -6.523601616646E+00 -4.337923958925E+00
   285   290     1    2.038891897206E+00  6.523601616646E+00 -4.337923958925E+00
   285   291     1    1.188169549588E+01 -3.555726469677E+00 -1.234962957870E+00
   285   292     1    2.038891897206E+00  3.555726469697E+00 -1.234962957870E+00
   293   293     1   -1.062836633388E+01  5.039664043172E+00  2.786443458407E+00
   293   294     1   -3.292221059211E+00 -5.039664043172E+00  2.786443458407E+00
   293   295     1    1.062836633388E+01 -5.039664043172E+00 -2.786443458407E+00
   293   296     1    3.292221059211E+00  5.039664043172E+00 -2.786443458407E+00
   297   297     1    1.277772074751E+01  8.641371063091E+00 -3.858988217959E+00
   297   298     1    1.142866645576E+00 -8.641371063091E+00 -3.858988217959E+00
   297   299     1    1.277772074751E+01  1.437957023252E+00 -1.713898698835E+00
   297   300     1    1.142866645576E+00 -1.437957023232E+00 -1.713898698835E+00
   297   301     1   -1.277772074751E+01 -8.641371063091E+00  3.858988217959E+00
   297   302     1   -1.142866645576E+00  8.641371063091E+00  3.858988217959E+00
   297   303     1   -1.277772074751E+01 -1.437957023232E+00  1.713898698855E+00
   297   304     1   -1.142866645576E+00  1.437957023252E+00  1.713898698855E+00
   305   305     8    4.012506907044E+00 -8.952958882502E+00  5.393259284376E+00
   305   306     8    9.908080486045E+00  8.952958882502E+00  5.393259284376E+00
   305   307     8    4.012506907044E+00 -1.126369203821E+00  1.796276324390E-01
   305   308     8    9.908080486045E+00  1.126369203842E+00  1.796276324390E-01
   305   309     8   -4.012506907044E+00  8.952958882502E+00 -5.393259284376E+00
   305   310     8   -9.908080486045E+00 -8.952958882502E+00 -5.393259284376E+00
   305   311     8   -4.012506907044E+00  1.126369203842E+00 -1.796276324190E-01
   305   312     8   -9.908080486045E+00 -1.126369203821E+00 -1.796276324190E-01
   313   313     8    4.678754155237E+00 -8.459592149858E+00 -3.657616590222E+00
   313   314     8    9.241833237851E+00  8.459592149858E+00 -3.657616590222E+00
   313   315     8    4.678754155237E+00 -1.619735936466E+00 -1.915270326573E+00
   313   316     8    9.241833237851E+00  1.619735936486E+00 -1.915270326573E+00
   313   317     8   -4.678754155237E+00  8.459592149858E+00  3.657616590222E+00
   313   318     8   -9.241833237851E+00 -8.459592149858E+00  3.657616590222E+00
   313   319     8   -4.678754155237E+00  1.619735936486E+00  1.915270326593E+00
   313   320     8   -9.241833237851E+00 -1.619735936466E+00  1.915270326593E+00
   321   321     8    9.184963891334E+00  9.117133494389E+00 -1.232240362813E+00
   321   322     8    4.735623501755E+00 -9.117133494389E+00 -1.232240362813E+00
   321   323     8    9.184963891334E+00  9.621945919540E-01 -4.340646553982E+00
   321   324     8    4.735623501755E+00 -9.621945919340E-01 -4.340646553982E+00
   321   325     8   -9.184963891334E+00 -9.117133494389E+00  1.232240362813E+00
   321   326     8   -4.735623501755E+00  9.117133494389E+00  1.232240362813E+00
   321   327     8   -9.184963891334E+00 -9.621945919340E-01  4.340646554002E+00
   321   328     8   -4.735623501755E+00  9.621945919540E-01  4.340646554002E+00
   329   329     8    9.796732830170E+00 -9.244990913726E+00 -3.137425109545E+00
   329   330     8    4.123854562919E+00  9.244990913726E+00 -3.137425109545E+00
   329   331     8    9.796732830170E+00 -8.343371725970E-01 -2.435461807250E+00
   329   332     8    4.123854562919E+00  8.343371726170E-01 -2.435461807250E+00
   329   333     8   -9.796732830170E+00  9.244990913726E+00  3.137425109545E+00
   329   334     8   -4.123854562919E+00 -9.244990913726E+00  3.137425109545E+00
   329   335     8   -9.796732830170E+00  8.343371726170E-01  2.435461807270E+00
   329   336     8   -4.123854562919E+00 -8.343371725970E-01  2.435461807270E+00
   337   337     8    1.132704663709E+01  7.554696406428E+00 -1.965828647195E+00
   337   338     8    2.593540755998E+00 -7.554696406428E+00 -1.965828647195E+00
   337   339     8    1.132704663709E+01  2.524631679916E+00 -3.607058269599E+00
   337   340     8    2.593540755998E+00 -2.524631679896E+00 -3.607058269599E+00
   337   341     8   -1.132704663709E+01 -7.554696406428E+00  1.965828647195E+00
   337   342     8   -2.593540755998E+00  7.554696406428E+00  1.965828647195E+00
   337   343     8   -1.132704663709E+01 -2.524631679896E+00  3.607058269619E+00
   337   344     8   -2.593540755998E+00  2.524631679916E+00  3.607058269619E+00
   345   345     8    1.099852065198E+01 -8.477355773766E+00 -4.864750039133E+00
   345   346     8    2.922066741111E+00  8.477355773766E+00 -4.864750039133E+00
   345   347     8    1.099852065198E+01 -1.601972312557E+00 -7.081368776620E-01
   345   348     8    2.922066741111E+00  1.601972312577E+00 -7.081368776620E-01
   345   349     8   -1.099852065198E+01  8.477355773766E+00  4.864750039133E+00
   345   350     8   -2.922066741111E+00 -8.477355773766E+00  4.864750039133E+00
   345   351     8   -1.099852065198E+01  1.601972312577E+00  7.081368776820E-01
   345   352     8   -2.922066741111E+00 -1.601972312557E+00  7.081368776820E-01
   353   353     8    1.184566105221E+01  1.006478033498E+01 -1.435010289831E+00
   353   354     8    2.074926340881E+00 -1.006478033498E+01 -1.435010289831E+00
   353   355     8    1.184566105221E+01  1.454775136400E-02 -4.137876626963E+00
   353   356     8    2.074926340881E+00 -1.454775134400E-02 -4.137876626963E+00
   353   357     8   -1.184566105221E+01 -1.006478033498E+01  1.435010289831E+00
   353   358     8   -2.074926340881E+00  1.006478033498E+01  1.435010289831E+00
   353   359     8   -1.184566105221E+01 -1.454775134400E-02  4.137876626983E+00
   353   360     8   -2.074926340881E+00  1.454775136400E-02  4.137876626983E+00
   361   361     8    1.145702144148E+01  1.003699753977E+01  3.375802020603E+00
   361   362     8    2.463565951605E+00 -1.003699753977E+01  3.375802020603E+00
   361   363     8    1.145702144148E+01  4.233054657600E-02  2.197084896212E+00
   361   364     8    2.463565951605E+00 -4.233054655600E-02  2.197084896212E+00
   361   365     8   -1.145702144148E+01 -1.003699753977E+01 -3.375802020603E+00
   361   366     8   -2.463565951605E+00  1.003699753977E+01 -3.375802020603E+00
   361   367     8   -1.145702144148E+01 -4.233054655600E-02 -2.197084896192E+00
   361   368     8   -2.463565951605E+00  4.233054657600E-02 -2.197084896192E+00
   369   369     8    1.202327148866E+01  9.202594762928E+00 -4.127814985326E+00
   369   370     8    1.897315904424E+00 -9.202594762928E+00 -4.127814985326E+00
   369   371     8    1.202327148866E+01  8.767333234160E-01 -1.445071931469E+00
   369   372     8    1.897315904424E+00 -8.767333233950E-01 -1.445071931469E+00
   369   373     8   -1.202327148866E+01 -9.202594762928E+00  4.127814985326E+00
   369   374     8   -1.897315904424E+00  9.202594762928E+00  4.127814985326E+00
   369   375     8   -1.202327148866E+01 -8.767333233950E-01  1.445071931489E+00
   369   376     8   -1.897315904424E+00  8.767333234160E-01  1.445071931489E+00
   377   377     8    1.221378532958E+01  7.263634791782E+00  4.385724312053E+00
   377   378     8    1.706802063511E+00 -7.263634791782E+00  4.385724312053E+00
   377   379     8    1.221378532958E+01  2.815693294561E+00  1.187162604762E+00
   377   380     8    1.706802063511E+00 -2.815693294541E+00  1.187162604762E+00
   377   381     8   -1.221378532958E+01 -7.263634791782E+00 -4.385724312053E+00
   377   382     8   -1.706802063511E+00  7.263634791782E+00 -4.385724312053E+00
   377   383     8   -1.221378532958E+01 -2.815693294541E+00 -1.187162604742E+00
   377   384     8   -1.706802063511E+00  2.815693294561E+00 -1.187162604742E+00
   385   385     8    1.296428757761E+01 -8.464832647963E+00 -2.532238435160E+00
   385   386     8    9.562998154830E-01  8.464832647963E+00 -2.532238435160E+00
   385   387     8    1.296428757761E+01 -1.614495438360E+00 -3.040648481634E+00
   385   388     8    9.562998154830E-01  1.614495438380E+00 -3.040648481634E+00
   385   389     8   -1.296428757761E+01  8.464832647963E+00  2.532238435160E+00
   385   390     8   -9.562998154830E-01 -8.464832647963E+00  2.532238435160E+00
   385   391     8   -1.296428757761E+01  1.614495438380E+00  3.040648481654E+00
   385   392     8   -9.562998154830E-01 -1.614495438360E+00  3.040648481654E+00
   393   393     8    1.339446862812E+01 -1.020276200178E+01  4.305808592301E+00
   393   394     8    5.261187649650E-01  1.020276200178E+01  4.305808592301E+00
   393   395     8    1.339446862812E+01  1.234339154560E-01  1.267078324514E+00
   393   396     8    5.261187649650E-01 -1.234339154350E-01  1.267078324514E+00
   393   397     8   -1.339446862812E+01  1.020276200178E+01 -4.305808592301E+00
   393   398     8   -5.261187649650E-01 -1.020276200178E+01 -4.305808592301E+00
   393   399     8   -1.339446862812E+01 -1.234339154350E-01 -1.267078324494E+00
   393   400     8   -5.261187649650E-01  1.234339154560E-01 -1.267078324494E+00
   401   401     8    1.359082869017E+01 -7.655678198035E+00 -5.224107866535E+00
   401   402     8    3.297587029150E-01  7.655678198035E+00 -5.224107866535E+00
   401   403     8    1.359082869017E+01 -2.423649888288E+00 -3.487790502590E-01
   401   404     8    3.297587029150E-01  2.423649888308E+00 -3.487790502590E-01
   401   405     8   -1.359082869017E+01  7.655678198035E+00  5.224107866535E+00
   401   406     8   -3.297587029150E-01 -7.655678198035E+00  5.224107866535E+00
   401   407     8   -1.359082869017E+01  2.423649888308E+00  3.487790502790E-01
   401   408     8   -3.297587029150E-01 -2.423649888288E+00  3.487790502790E-01

 SPACE  GROUP  N.                     :   52
 NUMBER OF SYMMETRY OPERATORS         :    8
 *******************************************************************************
 LATTICE PARAMETERS (ANGSTROMS AND DEGREES) - BOHR = 0.5291772083 ANGSTROM
 PRIMITIVE CELL - CENTRING CODE 1/0 VOLUME=  6255.461574 - DENSITY  1.359 g/cm^3
         A              B              C           ALPHA      BETA       GAMMA 
    27.84117479    20.15865617    11.14577383    90.000000  90.000000  90.000000
 *******************************************************************************
 ATOMS IN THE ASYMMETRIC UNIT   53 - ATOMS IN THE UNIT CELL:  408
     ATOM                 X/A                 Y/B                 Z/C    
 *******************************************************************************
      1 T  27 CO    3.837044294476E-01  4.597717571843E-01 -2.400232206799E-01
      2 F  27 CO    1.162955705520E-01 -4.597717571843E-01 -2.400232206799E-01
      3 F  27 CO    3.837044294476E-01  4.022824281537E-02 -2.599767793196E-01
      4 F  27 CO    1.162955705520E-01 -4.022824281438E-02 -2.599767793196E-01
      5 F  27 CO   -3.837044294476E-01 -4.597717571843E-01  2.400232206799E-01
      6 F  27 CO   -1.162955705520E-01  4.597717571843E-01  2.400232206799E-01
      7 F  27 CO   -3.837044294476E-01 -4.022824281438E-02  2.599767793214E-01
      8 F  27 CO   -1.162955705520E-01  4.022824281537E-02  2.599767793214E-01
      9 T  27 CO    4.219248223507E-01  4.567803509664E-01  4.608101192563E-01
     10 F  27 CO    7.807517764895E-02 -4.567803509664E-01  4.608101192563E-01
     11 F  27 CO    4.219248223507E-01  4.321964903335E-02  3.918988074504E-02
     12 F  27 CO    7.807517764895E-02 -4.321964903230E-02  3.918988074504E-02
     13 F  27 CO   -4.219248223507E-01 -4.567803509664E-01 -4.608101192563E-01
     14 F  27 CO   -7.807517764895E-02  4.567803509664E-01 -4.608101192563E-01
     15 F  27 CO   -4.219248223507E-01 -4.321964903230E-02 -3.918988074325E-02
     16 F  27 CO   -7.807517764895E-02  4.321964903335E-02 -3.918988074325E-02
     17 T  27 CO    4.553163305415E-01 -4.570701699779E-01 -3.999860453489E-01
     18 F  27 CO    4.468366945811E-02  4.570701699779E-01 -3.999860453489E-01
     19 F  27 CO    4.553163305415E-01 -4.292983002076E-02 -1.000139546506E-01
     20 F  27 CO    4.468366945811E-02  4.292983002175E-02 -1.000139546506E-01
     21 F  27 CO   -4.553163305415E-01  4.570701699779E-01  3.999860453489E-01
     22 F  27 CO   -4.468366945811E-02 -4.570701699779E-01  3.999860453489E-01
     23 F  27 CO   -4.553163305415E-01  4.292983002175E-02  1.000139546524E-01
     24 F  27 CO   -4.468366945811E-02 -4.292983002076E-02  1.000139546524E-01
     25 T   6 C     1.760052754981E-01 -4.304709636823E-01 -4.398113636781E-01
     26 F   6 C     3.239947245015E-01  4.304709636823E-01 -4.398113636781E-01
     27 F   6 C     1.760052754981E-01 -6.952903631633E-02 -6.018863632058E-02
     28 F   6 C     3.239947245015E-01  6.952903631732E-02 -6.018863632058E-02
     29 F   6 C    -1.760052754981E-01  4.304709636823E-01  4.398113636781E-01
     30 F   6 C    -3.239947245015E-01 -4.304709636823E-01  4.398113636781E-01
     31 F   6 C    -1.760052754981E-01  6.952903631732E-02  6.018863632238E-02
     32 F   6 C    -3.239947245015E-01 -6.952903631633E-02  6.018863632238E-02
     33 T   6 C     2.258086287748E-01 -4.283468076138E-01 -4.844461639266E-01
     34 F   6 C     2.741913712248E-01  4.283468076138E-01 -4.844461639266E-01
     35 F   6 C     2.258086287748E-01 -7.165319238487E-02 -1.555383607205E-02
     36 F   6 C     2.741913712248E-01  7.165319238587E-02 -1.555383607205E-02
     37 F   6 C    -2.258086287748E-01  4.283468076138E-01  4.844461639266E-01
     38 F   6 C    -2.741913712248E-01 -4.283468076138E-01  4.844461639266E-01
     39 F   6 C    -2.258086287748E-01  7.165319238587E-02  1.555383607385E-02
     40 F   6 C    -2.741913712248E-01 -7.165319238487E-02  1.555383607385E-02
     41 T   6 C     2.323448677096E-01 -4.291780742582E-01  3.921778088531E-01
     42 F   6 C     2.676551322900E-01  4.291780742582E-01  3.921778088531E-01
     43 F   6 C     2.323448677096E-01 -7.082192574044E-02  1.078221911483E-01
     44 F   6 C     2.676551322900E-01  7.082192574148E-02  1.078221911483E-01
     45 F   6 C    -2.323448677096E-01  4.291780742582E-01 -3.921778088531E-01
     46 F   6 C    -2.676551322900E-01 -4.291780742582E-01 -3.921778088531E-01
     47 F   6 C    -2.323448677096E-01  7.082192574148E-02 -1.078221911465E-01
     48 F   6 C    -2.676551322900E-01 -7.082192574044E-02 -1.078221911465E-01
     49 T   6 C     2.657772362569E-01 -4.272845803223E-01 -4.098582053854E-01
     50 F   6 C     2.342227637427E-01  4.272845803223E-01 -4.098582053854E-01
     51 F   6 C     2.657772362569E-01 -7.271541967634E-02 -9.014179461414E-02
     52 F   6 C     2.342227637427E-01  7.271541967734E-02 -9.014179461414E-02
     53 F   6 C    -2.657772362569E-01  4.272845803223E-01  4.098582053854E-01
     54 F   6 C    -2.342227637427E-01 -4.272845803223E-01  4.098582053854E-01
     55 F   6 C    -2.657772362569E-01  7.271541967734E-02  9.014179461593E-02
     56 F   6 C    -2.342227637427E-01 -7.271541967634E-02  9.014179461593E-02
     57 T   6 C     2.778382401323E-01 -4.235964159707E-01  3.430872853849E-01
     58 F   6 C     2.221617598673E-01  4.235964159707E-01  3.430872853849E-01
     59 F   6 C     2.778382401323E-01 -7.640358402793E-02  1.569127146164E-01
     60 F   6 C     2.221617598673E-01  7.640358402892E-02  1.569127146164E-01
     61 F   6 C    -2.778382401323E-01  4.235964159707E-01 -3.430872853849E-01
     62 F   6 C    -2.221617598673E-01 -4.235964159707E-01 -3.430872853849E-01
     63 F   6 C    -2.778382401323E-01  7.640358402892E-02 -1.569127146146E-01
     64 F   6 C    -2.221617598673E-01 -7.640358402793E-02 -1.569127146146E-01
     65 T   6 C     3.115736248972E-01 -4.245557003257E-01 -4.587935259672E-01
     66 F   6 C     1.884263751024E-01  4.245557003257E-01 -4.587935259672E-01
     67 F   6 C     3.115736248972E-01 -7.544429967294E-02 -4.120647403148E-02
     68 F   6 C     1.884263751024E-01  7.544429967394E-02 -4.120647403148E-02
     69 F   6 C    -3.115736248972E-01  4.245557003257E-01  4.587935259672E-01
     70 F   6 C    -1.884263751024E-01 -4.245557003257E-01  4.587935259672E-01
     71 F   6 C    -3.115736248972E-01  7.544429967394E-02  4.120647403328E-02
     72 F   6 C    -1.884263751024E-01 -7.544429967294E-02  4.120647403328E-02
     73 T   6 C     3.174418577899E-01 -4.208981283930E-01  4.173011826999E-01
     74 F   6 C     1.825581422097E-01  4.208981283930E-01  4.173011826999E-01
     75 F   6 C     3.174418577899E-01 -7.910187160568E-02  8.269881730143E-02
     76 F   6 C     1.825581422097E-01  7.910187160667E-02  8.269881730143E-02
     77 F   6 C    -3.174418577899E-01  4.208981283930E-01 -4.173011826999E-01
     78 F   6 C    -1.825581422097E-01 -4.208981283930E-01 -4.173011826999E-01
     79 F   6 C    -3.174418577899E-01  7.910187160667E-02 -8.269881729955E-02
     80 F   6 C    -1.825581422097E-01 -7.910187160568E-02 -8.269881729955E-02
     81 T   6 C     3.552054073111E-01 -4.336535986276E-01 -3.867669667558E-01
     82 F   6 C     1.447945926885E-01  4.336535986276E-01 -3.867669667558E-01
     83 F   6 C     3.552054073111E-01 -6.634640137105E-02 -1.132330332437E-01
     84 F   6 C     1.447945926885E-01  6.634640137204E-02 -1.132330332437E-01
     85 F   6 C    -3.552054073111E-01  4.336535986276E-01  3.867669667558E-01
     86 F   6 C    -1.447945926885E-01 -4.336535986276E-01  3.867669667558E-01
     87 F   6 C    -3.552054073111E-01  6.634640137204E-02  1.132330332455E-01
     88 F   6 C    -1.447945926885E-01 -6.634640137105E-02  1.132330332455E-01
     89 T   6 C     4.522122109485E-01 -4.489173049649E-01 -1.337313601406E-01
     90 F   6 C     4.778778905107E-02  4.489173049649E-01 -1.337313601406E-01
     91 F   6 C     4.522122109485E-01 -5.108269503379E-02 -3.662686398589E-01
     92 F   6 C     4.778778905107E-02  5.108269503483E-02 -3.662686398589E-01
     93 F   6 C    -4.522122109485E-01  4.489173049649E-01  1.337313601406E-01
     94 F   6 C    -4.778778905107E-02 -4.489173049649E-01  1.337313601406E-01
     95 F   6 C    -4.522122109485E-01  5.108269503483E-02  3.662686398607E-01
     96 F   6 C    -4.778778905107E-02 -5.108269503379E-02  3.662686398607E-01
     97 T   6 C     4.619574776941E-01 -4.650596432617E-01  8.269077594995E-02
     98 F   6 C     3.804252230549E-02  4.650596432617E-01  8.269077594995E-02
     99 F   6 C     4.619574776941E-01 -3.494035673692E-02  4.173092240514E-01
    100 F   6 C     3.804252230549E-02  3.494035673791E-02  4.173092240514E-01
    101 F   6 C    -4.619574776941E-01  4.650596432617E-01 -8.269077594995E-02
    102 F   6 C    -3.804252230549E-02 -4.650596432617E-01 -8.269077594995E-02
    103 F   6 C    -4.619574776941E-01  3.494035673791E-02 -4.173092240496E-01
    104 F   6 C    -3.804252230549E-02 -3.494035673692E-02 -4.173092240496E-01
    105 T   6 C     4.550402802337E-01 -4.858886326756E-01  2.969340474911E-01
    106 F   6 C     4.495971976594E-02  4.858886326756E-01  2.969340474911E-01
    107 F   6 C     4.550402802337E-01 -1.411136732305E-02  2.030659525102E-01
    108 F   6 C     4.495971976594E-02  1.411136732404E-02  2.030659525102E-01
    109 F   6 C    -4.550402802337E-01  4.858886326756E-01 -2.969340474911E-01
    110 F   6 C    -4.495971976594E-02 -4.858886326756E-01 -2.969340474911E-01
    111 F   6 C    -4.550402802337E-01  1.411136732404E-02 -2.030659525084E-01
    112 F   6 C    -4.495971976594E-02 -1.411136732305E-02 -2.030659525084E-01
    113 T   6 C     4.672543814332E-01 -4.233191058193E-01 -1.510750753047E-02
    114 F   6 C     3.274561856639E-02  4.233191058193E-01 -1.510750753047E-02
    115 F   6 C     4.672543814332E-01 -7.668089417931E-02 -4.848924924691E-01
    116 F   6 C     3.274561856639E-02  7.668089418031E-02 -4.848924924691E-01
    117 F   6 C    -4.672543814332E-01  4.233191058193E-01  1.510750753047E-02
    118 F   6 C    -3.274561856639E-02 -4.233191058193E-01  1.510750753047E-02
    119 F   6 C    -4.672543814332E-01  7.668089418031E-02  4.848924924709E-01
    120 F   6 C    -3.274561856639E-02 -7.668089417931E-02  4.848924924709E-01
    121 T   6 C     4.709765127943E-01 -4.430227668058E-01  1.981804416974E-01
    122 F   6 C     2.902348720531E-02  4.430227668058E-01  1.981804416974E-01
    123 F   6 C     4.709765127943E-01 -5.697723319283E-02  3.018195583040E-01
    124 F   6 C     2.902348720531E-02  5.697723319382E-02  3.018195583040E-01
    125 F   6 C    -4.709765127943E-01  4.430227668058E-01 -1.981804416974E-01
    126 F   6 C    -2.902348720531E-02 -4.430227668058E-01 -1.981804416974E-01
    127 F   6 C    -4.709765127943E-01  5.697723319382E-02 -3.018195583022E-01
    128 F   6 C    -2.902348720531E-02 -5.697723319283E-02 -3.018195583022E-01
    129 T   6 C     4.820747915617E-01 -3.580068944936E-01  1.130659106146E-03
    130 F   6 C     1.792520843788E-02  3.580068944936E-01  1.130659106146E-03
    131 F   6 C     4.820747915617E-01 -1.419931055051E-01  4.988693408943E-01
    132 F   6 C     1.792520843788E-02  1.419931055061E-01  4.988693408943E-01
    133 F   6 C    -4.820747915617E-01  3.580068944936E-01 -1.130659106146E-03
    134 F   6 C    -1.792520843788E-02 -3.580068944936E-01 -1.130659106146E-03
    135 F   6 C    -4.820747915617E-01  1.419931055061E-01 -4.988693408925E-01
    136 F   6 C    -1.792520843788E-02 -1.419931055051E-01 -4.988693408925E-01
    137 T   6 C     4.840846155914E-01 -3.771534630110E-01  2.168471070442E-01
    138 F   6 C     1.591538440819E-02  3.771534630110E-01  2.168471070442E-01
    139 F   6 C     4.840846155914E-01 -1.228465369877E-01  2.831528929572E-01
    140 F   6 C     1.591538440819E-02  1.228465369887E-01  2.831528929572E-01
    141 F   6 C    -4.840846155914E-01  3.771534630110E-01 -2.168471070442E-01
    142 F   6 C    -1.591538440819E-02 -3.771534630110E-01 -2.168471070442E-01
    143 F   6 C    -4.840846155914E-01  1.228465369887E-01 -2.831528929554E-01
    144 F   6 C    -1.591538440819E-02 -1.228465369877E-01 -2.831528929554E-01
    145 T   6 C     4.899675237242E-01 -3.352660857251E-01  1.177394574483E-01
    146 F   6 C     1.003247627541E-02  3.352660857251E-01  1.177394574483E-01
    147 F   6 C     4.899675237242E-01 -1.647339142735E-01  3.822605425530E-01
    148 F   6 C     1.003247627541E-02  1.647339142745E-01  3.822605425530E-01
    149 F   6 C    -4.899675237242E-01  3.352660857251E-01 -1.177394574483E-01
    150 F   6 C    -1.003247627541E-02 -3.352660857251E-01 -1.177394574483E-01
    151 F   6 C    -4.899675237242E-01  1.647339142745E-01 -3.822605425512E-01
    152 F   6 C    -1.003247627541E-02 -1.647339142735E-01 -3.822605425512E-01
    153 T   6 C     4.827489246566E-01  3.470306423469E-01  3.994123291434E-01
    154 F   6 C     1.725107534299E-02 -3.470306423469E-01  3.994123291434E-01
    155 F   6 C     4.827489246566E-01  1.529693576528E-01  1.005876708579E-01
    156 F   6 C     1.725107534299E-02 -1.529693576518E-01  1.005876708579E-01
    157 F   6 C    -4.827489246566E-01 -3.470306423469E-01 -3.994123291434E-01
    158 F   6 C    -1.725107534299E-02  3.470306423469E-01 -3.994123291434E-01
    159 F   6 C    -4.827489246566E-01 -1.529693576518E-01 -1.005876708561E-01
    160 F   6 C    -1.725107534299E-02  1.529693576528E-01 -1.005876708561E-01
    161 T   6 C     4.793405701380E-01  2.499999999999E-01  2.500000000006E-01
    162 F   6 C     2.065942986163E-02 -2.499999999999E-01  2.500000000006E-01
    163 F   6 C    -4.793405701380E-01 -2.499999999999E-01 -2.500000000006E-01
    164 F   6 C    -2.065942986163E-02  2.499999999999E-01 -2.500000000006E-01
    165 T   6 C    -4.954646427484E-01  2.934055199902E-01  3.253944866887E-01
    166 F   6 C    -4.535357251145E-03 -2.934055199902E-01  3.253944866887E-01
    167 F   6 C    -4.954646427484E-01  2.065944800095E-01  1.746055133126E-01
    168 F   6 C    -4.535357251145E-03 -2.065944800085E-01  1.746055133126E-01
    169 F   6 C     4.954646427484E-01 -2.934055199902E-01 -3.253944866887E-01
    170 F   6 C     4.535357251145E-03  2.934055199902E-01 -3.253944866887E-01
    171 F   6 C     4.954646427484E-01 -2.065944800085E-01 -1.746055133108E-01
    172 F   6 C     4.535357251145E-03  2.065944800095E-01 -1.746055133108E-01
    173 T   6 C    -4.454584168413E-01  2.908587610891E-01  3.278553654545E-01
    174 F   6 C    -5.454158315833E-02 -2.908587610891E-01  3.278553654545E-01
    175 F   6 C    -4.454584168413E-01  2.091412389105E-01  1.721446345469E-01
    176 F   6 C    -5.454158315833E-02 -2.091412389095E-01  1.721446345469E-01
    177 F   6 C     4.454584168413E-01 -2.908587610891E-01 -3.278553654545E-01
    178 F   6 C     5.454158315833E-02  2.908587610891E-01 -3.278553654545E-01
    179 F   6 C     4.454584168413E-01 -2.091412389095E-01 -1.721446345451E-01
    180 F   6 C     5.454158315833E-02  2.091412389105E-01 -1.721446345451E-01
    181 T   6 C    -4.206566504180E-01  2.499999999999E-01  2.500000000006E-01
    182 F   6 C    -7.934334958160E-02 -2.499999999999E-01  2.500000000006E-01
    183 F   6 C     4.206566504180E-01 -2.499999999999E-01 -2.500000000006E-01
    184 F   6 C     7.934334958160E-02  2.499999999999E-01 -2.500000000006E-01
    185 T   1 H     2.005507650814E-01 -4.336365872699E-01  3.373197692983E-01
    186 F   1 H     2.994492349183E-01  4.336365872699E-01  3.373197692983E-01
    187 F   1 H     2.005507650814E-01 -6.636341272881E-02  1.626802307030E-01
    188 F   1 H     2.994492349183E-01  6.636341272980E-02  1.626802307030E-01
    189 F   1 H    -2.005507650814E-01  4.336365872699E-01 -3.373197692983E-01
    190 F   1 H    -2.994492349183E-01 -4.336365872699E-01 -3.373197692983E-01
    191 F   1 H    -2.005507650814E-01  6.636341272980E-02 -1.626802307012E-01
    192 F   1 H    -2.994492349183E-01 -6.636341272881E-02 -1.626802307012E-01
    193 T   1 H     2.616177047066E-01 -4.279366312681E-01 -3.134649385612E-01
    194 F   1 H     2.383822952930E-01  4.279366312681E-01 -3.134649385612E-01
    195 F   1 H     2.616177047066E-01 -7.206336873057E-02 -1.865350614383E-01
    196 F   1 H     2.383822952930E-01  7.206336873156E-02 -1.865350614383E-01
    197 F   1 H    -2.616177047066E-01  4.279366312681E-01  3.134649385612E-01
    198 F   1 H    -2.383822952930E-01 -4.279366312681E-01  3.134649385612E-01
    199 F   1 H    -2.616177047066E-01  7.206336873156E-02  1.865350614401E-01
    200 F   1 H    -2.383822952930E-01 -7.206336873057E-02  1.865350614401E-01
    201 T   1 H     3.055541185343E-01  4.456757155788E-01 -1.732343366110E-01
    202 F   1 H     1.944458814653E-01 -4.456757155788E-01 -1.732343366110E-01
    203 F   1 H     3.055541185343E-01  5.432428442086E-02 -3.267656633885E-01
    204 F   1 H     1.944458814653E-01 -5.432428441986E-02 -3.267656633885E-01
    205 F   1 H    -3.055541185343E-01 -4.456757155788E-01  1.732343366110E-01
    206 F   1 H    -1.944458814653E-01  4.456757155788E-01  1.732343366110E-01
    207 F   1 H    -3.055541185343E-01 -5.432428441986E-02  3.267656633903E-01
    208 F   1 H    -1.944458814653E-01  5.432428442086E-02  3.267656633903E-01
    209 T   1 H     2.822227428188E-01 -4.208100499491E-01  2.467125425588E-01
    210 F   1 H     2.177772571808E-01  4.208100499491E-01  2.467125425588E-01
    211 F   1 H     2.822227428188E-01 -7.918995004954E-02  2.532874574425E-01
    212 F   1 H     2.177772571808E-01  7.918995005053E-02  2.532874574425E-01
    213 F   1 H    -2.822227428188E-01  4.208100499491E-01 -2.467125425588E-01
    214 F   1 H    -2.177772571808E-01 -4.208100499491E-01 -2.467125425588E-01
    215 F   1 H    -2.822227428188E-01  7.918995005053E-02 -2.532874574407E-01
    216 F   1 H    -2.177772571808E-01 -7.918995004954E-02 -2.532874574407E-01
    217 T   1 H     3.268534827714E-01  4.960468360631E-01 -7.469069253715E-02
    218 F   1 H     1.731465172282E-01 -4.960468360631E-01 -7.469069253715E-02
    219 F   1 H     3.268534827714E-01  3.953163938225E-03 -4.253093074624E-01
    220 F   1 H     1.731465172282E-01 -3.953163937233E-03 -4.253093074624E-01
    221 F   1 H    -3.268534827714E-01 -4.960468360631E-01  7.469069253715E-02
    222 F   1 H    -1.731465172282E-01  4.960468360631E-01  7.469069253715E-02
    223 F   1 H    -3.268534827714E-01 -3.953163937233E-03  4.253093074642E-01
    224 F   1 H    -1.731465172282E-01  3.953163938225E-03  4.253093074642E-01
    225 T   1 H     3.535205452993E-01 -4.180292281019E-01  3.817005773202E-01
    226 F   1 H     1.464794547003E-01  4.180292281019E-01  3.817005773202E-01
    227 F   1 H     3.535205452993E-01 -8.197077189668E-02  1.182994226811E-01
    228 F   1 H     1.464794547003E-01  8.197077189772E-02  1.182994226811E-01
    229 F   1 H    -3.535205452993E-01  4.180292281019E-01 -3.817005773202E-01
    230 F   1 H    -1.464794547003E-01 -4.180292281019E-01 -3.817005773202E-01
    231 F   1 H    -3.535205452993E-01  8.197077189772E-02 -1.182994226793E-01
    232 F   1 H    -1.464794547003E-01 -8.197077189668E-02 -1.182994226793E-01
    233 T   1 H     3.836453316610E-01  3.587402916735E-01 -1.177067392189E-01
    234 F   1 H     1.163546683386E-01 -3.587402916735E-01 -1.177067392189E-01
    235 F   1 H     3.836453316610E-01  1.412597083262E-01 -3.822932607806E-01
    236 F   1 H     1.163546683386E-01 -1.412597083252E-01 -3.822932607806E-01
    237 F   1 H    -3.836453316610E-01 -3.587402916735E-01  1.177067392189E-01
    238 F   1 H    -1.163546683386E-01  3.587402916735E-01  1.177067392189E-01
    239 F   1 H    -3.836453316610E-01 -1.412597083252E-01  3.822932607825E-01
    240 F   1 H    -1.163546683386E-01  1.412597083262E-01  3.822932607825E-01
    241 T   1 H     4.395593322569E-01  3.745886698857E-01 -1.423046607987E-01
    242 F   1 H     6.044066774266E-02 -3.745886698857E-01 -1.423046607987E-01
    243 F   1 H     4.395593322569E-01  1.254113301140E-01 -3.576953392009E-01
    244 F   1 H     6.044066774266E-02 -1.254113301130E-01 -3.576953392009E-01
    245 F   1 H    -4.395593322569E-01 -3.745886698857E-01  1.423046607987E-01
    246 F   1 H    -6.044066774266E-02  3.745886698857E-01  1.423046607987E-01
    247 F   1 H    -4.395593322569E-01 -1.254113301130E-01  3.576953392027E-01
    248 F   1 H    -6.044066774266E-02  1.254113301140E-01  3.576953392027E-01
    249 T   1 H     4.497022299160E-01  4.847641898287E-01  6.737818733214E-02
    250 F   1 H     5.029777008365E-02 -4.847641898287E-01  6.737818733214E-02
    251 F   1 H     4.497022299160E-01  1.523581017091E-02  4.326218126692E-01
    252 F   1 H     5.029777008365E-02 -1.523581016992E-02  4.326218126692E-01
    253 F   1 H    -4.497022299160E-01 -4.847641898287E-01 -6.737818733214E-02
    254 F   1 H    -5.029777008365E-02  4.847641898287E-01 -6.737818733214E-02
    255 F   1 H    -4.497022299160E-01 -1.523581016992E-02 -4.326218126674E-01
    256 F   1 H    -5.029777008365E-02  1.523581017091E-02 -4.326218126674E-01
    257 T   1 H     4.403887995077E-01  2.499999999999E-01  2.500000000006E-01
    258 F   1 H     5.961120049186E-02 -2.499999999999E-01  2.500000000006E-01
    259 F   1 H    -4.403887995077E-01 -2.499999999999E-01 -2.500000000006E-01
    260 F   1 H    -5.961120049186E-02  2.499999999999E-01 -2.500000000006E-01
    261 T   1 H     4.839942420995E-01 -3.243774973953E-01 -7.568184698187E-02
    262 F   1 H     1.600575790013E-02  3.243774973953E-01 -7.568184698187E-02
    263 F   1 H     4.839942420995E-01 -1.756225026034E-01 -4.243181530177E-01
    264 F   1 H     1.600575790013E-02  1.756225026044E-01 -4.243181530177E-01
    265 F   1 H    -4.839942420995E-01  3.243774973953E-01  7.568184698187E-02
    266 F   1 H    -1.600575790013E-02 -3.243774973953E-01  7.568184698187E-02
    267 F   1 H    -4.839942420995E-01  1.756225026044E-01  4.243181530195E-01
    268 F   1 H    -1.600575790013E-02 -1.756225026034E-01  4.243181530195E-01
    269 T   1 H     4.852759277064E-01 -3.580710332301E-01  3.082677483227E-01
    270 F   1 H     1.472407229325E-02  3.580710332301E-01  3.082677483227E-01
    271 F   1 H     4.852759277064E-01 -1.419289667686E-01  1.917322516786E-01
    272 F   1 H     1.472407229325E-02  1.419289667696E-01  1.917322516786E-01
    273 F   1 H    -4.852759277064E-01  3.580710332301E-01 -3.082677483227E-01
    274 F   1 H    -1.472407229325E-02 -3.580710332301E-01 -3.082677483227E-01
    275 F   1 H    -4.852759277064E-01  1.419289667696E-01 -1.917322516768E-01
    276 F   1 H    -1.472407229325E-02 -1.419289667686E-01 -1.917322516768E-01
    277 T   1 H     4.965163776341E-01 -2.827967250764E-01  1.319814704182E-01
    278 F   1 H     3.483622366254E-03  2.827967250764E-01  1.319814704182E-01
    279 F   1 H     4.965163776341E-01 -2.172032749223E-01  3.680185295831E-01
    280 F   1 H     3.483622366254E-03  2.172032749233E-01  3.680185295831E-01
    281 F   1 H    -4.965163776341E-01  2.827967250764E-01 -1.319814704182E-01
    282 F   1 H    -3.483622366254E-03 -2.827967250764E-01 -1.319814704182E-01
    283 F   1 H    -4.965163776341E-01  2.172032749233E-01 -3.680185295813E-01
    284 F   1 H    -3.483622366254E-03 -2.172032749223E-01 -3.680185295813E-01
    285 T   1 H    -4.267670307423E-01  3.236129214546E-01  3.891989935995E-01
    286 F   1 H    -7.323296925734E-02 -3.236129214546E-01  3.891989935995E-01
    287 F   1 H    -4.267670307423E-01  1.763870785451E-01  1.108010064018E-01
    288 F   1 H    -7.323296925734E-02 -1.763870785441E-01  1.108010064018E-01
    289 F   1 H     4.267670307423E-01 -3.236129214546E-01 -3.891989935995E-01
    290 F   1 H     7.323296925734E-02  3.236129214546E-01 -3.891989935995E-01
    291 F   1 H     4.267670307423E-01 -1.763870785441E-01 -1.108010064000E-01
    292 F   1 H     7.323296925734E-02  1.763870785451E-01 -1.108010064000E-01
    293 T   1 H    -3.817499231083E-01  2.499999999999E-01  2.500000000006E-01
    294 F   1 H    -1.182500768913E-01 -2.499999999999E-01  2.500000000006E-01
    295 F   1 H     3.817499231083E-01 -2.499999999999E-01 -2.500000000006E-01
    296 F   1 H     1.182500768913E-01  2.499999999999E-01 -2.500000000006E-01
    297 T   1 H     4.589504877447E-01  4.286680118486E-01 -3.462288285741E-01
    298 F   1 H     4.104951225487E-02 -4.286680118486E-01 -3.462288285741E-01
    299 F   1 H     4.589504877447E-01  7.133198815104E-02 -1.537711714254E-01
    300 F   1 H     4.104951225487E-02 -7.133198815005E-02 -1.537711714254E-01
    301 F   1 H    -4.589504877447E-01 -4.286680118486E-01  3.462288285741E-01
    302 F   1 H    -4.104951225487E-02  4.286680118486E-01  3.462288285741E-01
    303 F   1 H    -4.589504877447E-01 -7.133198815005E-02  1.537711714272E-01
    304 F   1 H    -4.104951225487E-02  7.133198815104E-02  1.537711714272E-01
    305 T   8 O     1.441213216704E-01 -4.441247871784E-01  4.838837899364E-01
    306 F   8 O     3.558786783292E-01  4.441247871784E-01  4.838837899364E-01
    307 F   8 O     1.441213216704E-01 -5.587521282031E-02  1.611621006498E-02
    308 F   8 O     3.558786783292E-01  5.587521282135E-02  1.611621006498E-02
    309 F   8 O    -1.441213216704E-01  4.441247871784E-01 -4.838837899364E-01
    310 F   8 O    -3.558786783292E-01 -4.441247871784E-01 -4.838837899364E-01
    311 F   8 O    -1.441213216704E-01  5.587521282135E-02 -1.611621006318E-02
    312 F   8 O    -3.558786783292E-01 -5.587521282031E-02 -1.611621006318E-02
    313 T   8 O     1.680516067000E-01 -4.196505995928E-01 -3.281617449652E-01
    314 F   8 O     3.319483932995E-01  4.196505995928E-01 -3.281617449652E-01
    315 F   8 O     1.680516067000E-01 -8.034940040594E-02 -1.718382550343E-01
    316 F   8 O     3.319483932995E-01  8.034940040693E-02 -1.718382550343E-01
    317 F   8 O    -1.680516067000E-01  4.196505995928E-01  3.281617449652E-01
    318 F   8 O    -3.319483932995E-01 -4.196505995928E-01  3.281617449652E-01
    319 F   8 O    -1.680516067000E-01  8.034940040693E-02  1.718382550361E-01
    320 F   8 O    -3.319483932995E-01 -8.034940040594E-02  1.718382550361E-01
    321 T   8 O     3.299057587141E-01  4.522689119891E-01 -1.105567348853E-01
    322 F   8 O     1.700942412855E-01 -4.522689119891E-01 -1.105567348853E-01
    323 F   8 O     3.299057587141E-01  4.773108801057E-02 -3.894432651142E-01
    324 F   8 O     1.700942412855E-01 -4.773108800958E-02 -3.894432651142E-01
    325 F   8 O    -3.299057587141E-01 -4.522689119891E-01  1.105567348853E-01
    326 F   8 O    -1.700942412855E-01  4.522689119891E-01  1.105567348853E-01
    327 F   8 O    -3.299057587141E-01 -4.773108800958E-02  3.894432651160E-01
    328 F   8 O    -1.700942412855E-01  4.773108801057E-02  3.894432651160E-01
    329 T   8 O     3.518792904898E-01 -4.586114686675E-01 -2.814901106361E-01
    330 F   8 O     1.481207095098E-01  4.586114686675E-01 -2.814901106361E-01
    331 F   8 O     3.518792904898E-01 -4.138853133112E-02 -2.185098893635E-01
    332 F   8 O     1.481207095098E-01  4.138853133211E-02 -2.185098893635E-01
    333 F   8 O    -3.518792904898E-01  4.586114686675E-01  2.814901106361E-01
    334 F   8 O    -1.481207095098E-01 -4.586114686675E-01  2.814901106361E-01
    335 F   8 O    -3.518792904898E-01  4.138853133211E-02  2.185098893652E-01
    336 F   8 O    -1.481207095098E-01 -4.138853133112E-02  2.185098893652E-01
    337 T   8 O     4.068451394050E-01  3.747619058387E-01 -1.763743528752E-01
    338 F   8 O     9.315486059459E-02 -3.747619058387E-01 -1.763743528752E-01
    339 F   8 O     4.068451394050E-01  1.252380941610E-01 -3.236256471242E-01
    340 F   8 O     9.315486059459E-02 -1.252380941600E-01 -3.236256471242E-01
    341 F   8 O    -4.068451394050E-01 -3.747619058387E-01  1.763743528752E-01
    342 F   8 O    -9.315486059459E-02  3.747619058387E-01  1.763743528752E-01
    343 F   8 O    -4.068451394050E-01 -1.252380941600E-01  3.236256471260E-01
    344 F   8 O    -9.315486059459E-02  1.252380941610E-01  3.236256471260E-01
    345 T   8 O     3.950451350002E-01 -4.205317904696E-01 -4.364658848960E-01
    346 F   8 O     1.049548649994E-01  4.205317904696E-01 -4.364658848960E-01
    347 F   8 O     3.950451350002E-01 -7.946820952909E-02 -6.353411510354E-02
    348 F   8 O     1.049548649994E-01  7.946820953008E-02 -6.353411510354E-02
    349 F   8 O    -3.950451350002E-01  4.205317904696E-01  4.364658848960E-01
    350 F   8 O    -1.049548649994E-01 -4.205317904696E-01  4.364658848960E-01
    351 F   8 O    -3.950451350002E-01  7.946820953008E-02  6.353411510534E-02
    352 F   8 O    -1.049548649994E-01 -7.946820952909E-02  6.353411510534E-02
    353 T   8 O     4.254727447090E-01  4.992783372440E-01 -1.287492740526E-01
    354 F   8 O     7.452725529059E-02 -4.992783372440E-01 -1.287492740526E-01
    355 F   8 O     4.254727447090E-01  7.216627556603E-04 -3.712507259468E-01
    356 F   8 O     7.452725529059E-02 -7.216627546682E-04 -3.712507259468E-01
    357 F   8 O    -4.254727447090E-01 -4.992783372440E-01  1.287492740526E-01
    358 F   8 O    -7.452725529059E-02  4.992783372440E-01  1.287492740526E-01
    359 F   8 O    -4.254727447090E-01 -7.216627546682E-04  3.712507259486E-01
    360 F   8 O    -7.452725529059E-02  7.216627556603E-04  3.712507259486E-01
    361 T   8 O     4.115135776226E-01  4.979001305335E-01  3.028773121545E-01
    362 F   8 O     8.848642237705E-02 -4.979001305335E-01  3.028773121545E-01
    363 F   8 O     4.115135776226E-01  2.099869466166E-03  1.971226878468E-01
    364 F   8 O     8.848642237705E-02 -2.099869465174E-03  1.971226878468E-01
    365 F   8 O    -4.115135776226E-01 -4.979001305335E-01 -3.028773121545E-01
    366 F   8 O    -8.848642237705E-02  4.979001305335E-01 -3.028773121545E-01
    367 F   8 O    -4.115135776226E-01 -2.099869465174E-03 -1.971226878450E-01
    368 F   8 O    -8.848642237705E-02  2.099869466166E-03 -1.971226878450E-01
    369 T   8 O     4.318521607294E-01  4.565083448068E-01 -3.703479944015E-01
    370 F   8 O     6.814783927022E-02 -4.565083448068E-01 -3.703479944015E-01
    371 F   8 O     4.318521607294E-01  4.349165519294E-02 -1.296520055981E-01
    372 F   8 O     6.814783927022E-02 -4.349165519189E-02 -1.296520055981E-01
    373 F   8 O    -4.318521607294E-01 -4.565083448068E-01  3.703479944015E-01
    374 F   8 O    -6.814783927022E-02  4.565083448068E-01  3.703479944015E-01
    375 F   8 O    -4.318521607294E-01 -4.349165519189E-02  1.296520055999E-01
    376 F   8 O    -6.814783927022E-02  4.349165519294E-02  1.296520055999E-01
    377 T   8 O     4.386950415480E-01  3.603233633013E-01  3.934876463070E-01
    378 F   8 O     6.130495845157E-02 -3.603233633013E-01  3.934876463070E-01
    379 F   8 O     4.386950415480E-01  1.396766366983E-01  1.065123536944E-01
    380 F   8 O     6.130495845157E-02 -1.396766366973E-01  1.065123536944E-01
    381 F   8 O    -4.386950415480E-01 -3.603233633013E-01 -3.934876463070E-01
    382 F   8 O    -6.130495845157E-02  3.603233633013E-01 -3.934876463070E-01
    383 F   8 O    -4.386950415480E-01 -1.396766366973E-01 -1.065123536926E-01
    384 F   8 O    -6.130495845157E-02  1.396766366983E-01 -1.065123536926E-01
    385 T   8 O     4.656515997318E-01 -4.199105622639E-01 -2.271926985927E-01
    386 F   8 O     3.434840026783E-02  4.199105622639E-01 -2.271926985927E-01
    387 F   8 O     4.656515997318E-01 -8.008943773477E-02 -2.728073014067E-01
    388 F   8 O     3.434840026783E-02  8.008943773576E-02 -2.728073014067E-01
    389 F   8 O    -4.656515997318E-01  4.199105622639E-01  2.271926985927E-01
    390 F   8 O    -3.434840026783E-02 -4.199105622639E-01  2.271926985927E-01
    391 F   8 O    -4.656515997318E-01  8.008943773576E-02  2.728073014085E-01
    392 F   8 O    -3.434840026783E-02 -8.008943773477E-02  2.728073014085E-01
    393 T   8 O     4.811028532734E-01  4.938768777854E-01  3.863175995300E-01
    394 F   8 O     1.889714672621E-02 -4.938768777854E-01  3.863175995300E-01
    395 F   8 O     4.811028532734E-01  6.123122216012E-03  1.136824004713E-01
    396 F   8 O     1.889714672621E-02 -6.123122214970E-03  1.136824004713E-01
    397 F   8 O    -4.811028532734E-01 -4.938768777854E-01 -3.863175995300E-01
    398 F   8 O    -1.889714672621E-02  4.938768777854E-01 -3.863175995300E-01
    399 F   8 O    -4.811028532734E-01 -6.123122214970E-03 -1.136824004695E-01
    400 F   8 O    -1.889714672621E-02  6.123122216012E-03 -1.136824004695E-01
    401 T   8 O     4.881557188065E-01 -3.797712571934E-01 -4.687075069464E-01
    402 F   8 O     1.184428119314E-02  3.797712571934E-01 -4.687075069464E-01
    403 F   8 O     4.881557188065E-01 -1.202287428053E-01 -3.129249305307E-02
    404 F   8 O     1.184428119314E-02  1.202287428063E-01 -3.129249305307E-02
    405 F   8 O    -4.881557188065E-01  3.797712571934E-01  4.687075069464E-01
    406 F   8 O    -1.184428119314E-02 -3.797712571934E-01  4.687075069464E-01
    407 F   8 O    -4.881557188065E-01  1.202287428063E-01  3.129249305486E-02
    408 F   8 O    -1.184428119314E-02 -1.202287428053E-01  3.129249305486E-02

 T = ATOM BELONGING TO THE ASYMMETRIC UNIT
 *******************************************************************************
 * GEOMETRY EDITING - INPUT COORDINATES ARE GIVEN IN ANGSTROM         
 *******************************************************************************

 GEOMETRY NOW FULLY CONSISTENT WITH THE GROUP
 INFORMATION **** NEW DEFAULT **** FINALRUN 4 FOR GEOMETRY OPTIMIZATIONS
 INFORMATION **** NEW DEFAULT **** OPTGEOM OPTIMIZES BOTH ATOMIC COORDINATES AND CELL PARAMETERS
 INFORMATION **** NEW DEFAULT **** TOL. ON ATOMIC DISP TO REDEFINE REF. GEOMETRY: 0.8 Angs
 INFORMATION **** NEW DEFAULT **** N POINTS TO REDEFINE REF. GEOMETRY: N OF OPT DEGS OF FREEDOM
 INFORMATION **** NEW DEFAULT **** TOL. ON ENERGY TO REDEFINE REF. GEOMETRY: 10**-3*(5*N. ATOMS)
 INFORMATION **** FULLOPTG **** FULL OPTIMIZATION (ATOMS AND CELL PARAMETERS)

 EXTERNAL STRESS APPLIED (HARTREE/BOHR^3):
 (1 HARTREE/BOHR^3 = 29421 GIGAPASCAL)
 EXTERNAL STRESS
 ORDER:   11   12    13 
          21   22    23 
          31   32    33 
 -0.5100000E-04  0.0000000E+00  0.0000000E+00
  0.0000000E+00 -0.5100000E-04  0.0000000E+00
  0.0000000E+00  0.0000000E+00 -0.5100000E-04

 INFORMATION **** MAXCYCLE ****   MAXIMUM NUMBER OF OPTIMIZATION CYCLES         400

 IMPORTANT INFORMATION:
 THE COORDINATE SYSTEM ADOPTED IN THE OPTIMIZATION IS NOT IN
 GENERAL HOMOGENEOUS UNITS. FOR THIS REASON THE GRADIENT AND 
 HESSIAN MATRIX IN TERMS OF THIS SYSTEM ARE GIVEN WITHOUT
 UNITS. FOR MORE DETAILS SEE THE MANUAL.

 *******************************************************************************
 COMBINED CELL/ATOM OPTIMIZATION CONTROL

 MAXIMUM GRADIENT COMPONENT   0.00045 MAXIMUM DISPLACEMENT COMPONENT     0.00180
 R.M.S. OF GRADIENT COMPONENT 0.00030 R.M.S. OF DISPLACEMENT COMPONENTS  0.00120
 THRESHOLD ON ENERGY CHANGE 0.100E-06 EXTRAPOLATING POLYNOMIAL ORDER           2
 MAXIMUM ALLOWED NUMBER OF STEPS  400 SORTING OF ENERGY POINTS:               NO
 ANALYTICAL  GRADIENT                 HESSIAN UPDATING                      BFGS
 STEP SIZE NUMERICAL GRADIENT 0.00100
 INITIAL HESSIAN MATRIX: SCHLEGEL MODEL 2
 *******************************************************************************


 GCALCO - MAX INDICES DIRECT LATTICE VECTOR    10    13    24
 NO.OF VECTORS CREATED 6999 STARS 1061 RMAX   413.34006 BOHR

 GEOMETRY FOR WAVE FUNCTION - DIMENSIONALITY OF THE SYSTEM    3
 (NON PERIODIC DIRECTION: LATTICE PARAMETER FORMALLY SET TO 500)
 *******************************************************************************
 LATTICE PARAMETERS (ANGSTROMS AND DEGREES) - BOHR = 0.5291772083 ANGSTROM
 PRIMITIVE CELL - CENTRING CODE 1/0 VOLUME=  6255.461574 - DENSITY  1.359 g/cm^3
         A              B              C           ALPHA      BETA       GAMMA 
    27.84117479    20.15865617    11.14577383    90.000000  90.000000  90.000000
 *******************************************************************************
 ATOMS IN THE ASYMMETRIC UNIT   53 - ATOMS IN THE UNIT CELL:  408
     ATOM                 X/A                 Y/B                 Z/C    
 *******************************************************************************
      1 T  27 CO    3.837044294476E-01  4.597717571843E-01 -2.400232206799E-01
      2 F  27 CO    1.162955705524E-01 -4.597717571843E-01 -2.400232206799E-01
      3 F  27 CO    3.837044294476E-01  4.022824281324E-02 -2.599767793192E-01
      4 F  27 CO    1.162955705524E-01 -4.022824281820E-02 -2.599767793192E-01
      5 F  27 CO   -3.837044294476E-01 -4.597717571843E-01  2.400232206799E-01
      6 F  27 CO   -1.162955705524E-01  4.597717571843E-01  2.400232206799E-01
      7 F  27 CO   -3.837044294476E-01 -4.022824281820E-02  2.599767793210E-01
      8 F  27 CO   -1.162955705524E-01  4.022824281324E-02  2.599767793210E-01
      9 T  27 CO    4.219248223507E-01  4.567803509664E-01  4.608101192563E-01
     10 F  27 CO    7.807517764934E-02 -4.567803509664E-01  4.608101192563E-01
     11 F  27 CO    4.219248223507E-01  4.321964903116E-02  3.918988074459E-02
     12 F  27 CO    7.807517764934E-02 -4.321964903612E-02  3.918988074459E-02
     13 F  27 CO   -4.219248223507E-01 -4.567803509664E-01 -4.608101192563E-01
     14 F  27 CO   -7.807517764934E-02  4.567803509664E-01 -4.608101192563E-01
     15 F  27 CO   -4.219248223507E-01 -4.321964903612E-02 -3.918988074280E-02
     16 F  27 CO   -7.807517764934E-02  4.321964903116E-02 -3.918988074280E-02
     17 T  27 CO    4.553163305415E-01 -4.570701699779E-01 -3.999860453489E-01
     18 F  27 CO    4.468366945850E-02  4.570701699779E-01 -3.999860453489E-01
     19 F  27 CO    4.553163305415E-01 -4.292983002458E-02 -1.000139546502E-01
     20 F  27 CO    4.468366945850E-02  4.292983001962E-02 -1.000139546502E-01
     21 F  27 CO   -4.553163305415E-01  4.570701699779E-01  3.999860453489E-01
     22 F  27 CO   -4.468366945850E-02 -4.570701699779E-01  3.999860453489E-01
     23 F  27 CO   -4.553163305415E-01  4.292983001962E-02  1.000139546520E-01
     24 F  27 CO   -4.468366945850E-02 -4.292983002458E-02  1.000139546520E-01
     25 T   6 C     1.760052754981E-01 -4.304709636823E-01 -4.398113636781E-01
     26 F   6 C     3.239947245019E-01  4.304709636823E-01 -4.398113636781E-01
     27 F   6 C     1.760052754981E-01 -6.952903632015E-02 -6.018863632103E-02
     28 F   6 C     3.239947245019E-01  6.952903631519E-02 -6.018863632103E-02
     29 F   6 C    -1.760052754981E-01  4.304709636823E-01  4.398113636781E-01
     30 F   6 C    -3.239947245019E-01 -4.304709636823E-01  4.398113636781E-01
     31 F   6 C    -1.760052754981E-01  6.952903631519E-02  6.018863632282E-02
     32 F   6 C    -3.239947245019E-01 -6.952903632015E-02  6.018863632282E-02
     33 T   6 C     2.258086287748E-01 -4.283468076138E-01 -4.844461639266E-01
     34 F   6 C     2.741913712252E-01  4.283468076138E-01 -4.844461639266E-01
     35 F   6 C     2.258086287748E-01 -7.165319238869E-02 -1.555383607250E-02
     36 F   6 C     2.741913712252E-01  7.165319238373E-02 -1.555383607250E-02
     37 F   6 C    -2.258086287748E-01  4.283468076138E-01  4.844461639266E-01
     38 F   6 C    -2.741913712252E-01 -4.283468076138E-01  4.844461639266E-01
     39 F   6 C    -2.258086287748E-01  7.165319238373E-02  1.555383607430E-02
     40 F   6 C    -2.741913712252E-01 -7.165319238869E-02  1.555383607430E-02
     41 T   6 C     2.323448677096E-01 -4.291780742582E-01  3.921778088531E-01
     42 F   6 C     2.676551322904E-01  4.291780742582E-01  3.921778088531E-01
     43 F   6 C     2.323448677096E-01 -7.082192574426E-02  1.078221911478E-01
     44 F   6 C     2.676551322904E-01  7.082192573930E-02  1.078221911478E-01
     45 F   6 C    -2.323448677096E-01  4.291780742582E-01 -3.921778088531E-01
     46 F   6 C    -2.676551322904E-01 -4.291780742582E-01 -3.921778088531E-01
     47 F   6 C    -2.323448677096E-01  7.082192573930E-02 -1.078221911460E-01
     48 F   6 C    -2.676551322904E-01 -7.082192574426E-02 -1.078221911460E-01
     49 T   6 C     2.657772362569E-01 -4.272845803223E-01 -4.098582053854E-01
     50 F   6 C     2.342227637431E-01  4.272845803223E-01 -4.098582053854E-01
     51 F   6 C     2.657772362569E-01 -7.271541968016E-02 -9.014179461369E-02
     52 F   6 C     2.342227637431E-01  7.271541967520E-02 -9.014179461369E-02
     53 F   6 C    -2.657772362569E-01  4.272845803223E-01  4.098582053854E-01
     54 F   6 C    -2.342227637431E-01 -4.272845803223E-01  4.098582053854E-01
     55 F   6 C    -2.657772362569E-01  7.271541967520E-02  9.014179461548E-02
     56 F   6 C    -2.342227637431E-01 -7.271541968016E-02  9.014179461548E-02
     57 T   6 C     2.778382401323E-01 -4.235964159707E-01  3.430872853849E-01
     58 F   6 C     2.221617598677E-01  4.235964159707E-01  3.430872853849E-01
     59 F   6 C     2.778382401323E-01 -7.640358403175E-02  1.569127146160E-01
     60 F   6 C     2.221617598677E-01  7.640358402679E-02  1.569127146160E-01
     61 F   6 C    -2.778382401323E-01  4.235964159707E-01 -3.430872853849E-01
     62 F   6 C    -2.221617598677E-01 -4.235964159707E-01 -3.430872853849E-01
     63 F   6 C    -2.778382401323E-01  7.640358402679E-02 -1.569127146142E-01
     64 F   6 C    -2.221617598677E-01 -7.640358403175E-02 -1.569127146142E-01
     65 T   6 C     3.115736248972E-01 -4.245557003257E-01 -4.587935259672E-01
     66 F   6 C     1.884263751028E-01  4.245557003257E-01 -4.587935259672E-01
     67 F   6 C     3.115736248972E-01 -7.544429967676E-02 -4.120647403193E-02
     68 F   6 C     1.884263751028E-01  7.544429967180E-02 -4.120647403193E-02
     69 F   6 C    -3.115736248972E-01  4.245557003257E-01  4.587935259672E-01
[...]
-rw-r----- 1 utg54rf drd        3129992 May  4 07:05 fort.95.pe011
-rw-r----- 1 utg54rf drd        3129992 May  4 07:05 fort.95.pe012
-rw-r----- 1 utg54rf drd        3129992 May  4 07:05 fort.95.pe013
-rw-r----- 1 utg54rf drd        3129992 May  4 07:05 fort.95.pe014
-rw-r----- 1 utg54rf drd        3129992 May  4 07:05 fort.95.pe015
-rw-r----- 1 utg54rf drd        3129992 May  4 07:05 fort.95.pe016
-rw-r----- 1 utg54rf drd        3129992 May  4 07:05 fort.95.pe017
-rw-r----- 1 utg54rf drd        3129992 May  4 07:05 fort.95.pe018
-rw-r----- 1 utg54rf drd        3129992 May  4 07:05 fort.95.pe019
-rw-r----- 1 utg54rf drd        3129992 May  4 07:05 fort.95.pe020
-rw-r----- 1 utg54rf drd        3129992 May  4 07:05 fort.95.pe021
-rw-r----- 1 utg54rf drd        3129992 May  4 07:05 fort.95.pe022
-rw-r----- 1 utg54rf drd        3129992 May  4 07:05 fort.95.pe023
-rw-r----- 1 utg54rf drd        3129992 May  4 07:05 fort.95.pe024
-rw-r----- 1 utg54rf drd        3129992 May  4 07:05 fort.95.pe025
-rw-r----- 1 utg54rf drd        3129992 May  4 07:05 fort.95.pe026
-rw-r----- 1 utg54rf drd        3129992 May  4 07:05 fort.95.pe027
-rw-r----- 1 utg54rf drd        3129992 May  4 07:05 fort.95.pe028
-rw-r----- 1 utg54rf drd        3129992 May  4 07:05 fort.95.pe029
-rw-r----- 1 utg54rf drd        3129992 May  4 07:05 fort.95.pe030
-rw-r----- 1 utg54rf drd        3129992 May  4 07:05 fort.95.pe031
-rw-r----- 1 utg54rf drd        3129992 May  4 07:05 fort.95.pe032
-rw-r----- 1 utg54rf drd        3129992 May  4 07:05 fort.95.pe033
-rw-r----- 1 utg54rf drd        3129992 May  4 07:05 fort.95.pe034
-rw-r----- 1 utg54rf drd        3129992 May  4 07:05 fort.95.pe035
-rw-r----- 1 utg54rf drd        3129992 May  4 07:05 fort.95.pe036
-rw-r----- 1 utg54rf drd        3129992 May  4 07:05 fort.95.pe037
-rw-r----- 1 utg54rf drd        3129992 May  4 07:05 fort.95.pe038
-rw-r----- 1 utg54rf drd        3129992 May  4 07:05 fort.95.pe039
-rw-r----- 1 utg54rf drd        3129992 May  4 07:05 fort.95.pe040
-rw-r----- 1 utg54rf drd        3129992 May  4 07:05 fort.95.pe041
-rw-r----- 1 utg54rf drd        3129992 May  4 07:05 fort.95.pe042
-rw-r----- 1 utg54rf drd        3129992 May  4 07:05 fort.95.pe043
-rw-r----- 1 utg54rf drd        3129992 May  4 07:05 fort.95.pe044
-rw-r----- 1 utg54rf drd        3129992 May  4 07:05 fort.95.pe045
-rw-r----- 1 utg54rf drd        3129992 May  4 07:05 fort.95.pe046
-rw-r----- 1 utg54rf drd        3129992 May  4 07:05 fort.95.pe047
-rw-r----- 1 utg54rf drd        3129992 May  4 07:05 fort.95.pe048
-rw-r----- 1 utg54rf drd        3129992 May  4 07:05 fort.95.pe049
-rw-r----- 1 utg54rf drd        3129992 May  4 07:05 fort.95.pe050
-rw-r----- 1 utg54rf drd        3129992 May  4 07:05 fort.95.pe051
-rw-r----- 1 utg54rf drd        3129992 May  4 07:05 fort.95.pe052
-rw-r----- 1 utg54rf drd        3129992 May  4 07:05 fort.95.pe053
-rw-r----- 1 utg54rf drd        3129992 May  4 07:05 fort.95.pe054
-rw-r----- 1 utg54rf drd        3129992 May  4 07:05 fort.95.pe055
-rw-r----- 1 utg54rf drd        3129992 May  4 07:05 fort.95.pe056
-rw-r----- 1 utg54rf drd        3129992 May  4 07:05 fort.95.pe057
-rw-r----- 1 utg54rf drd        3129992 May  4 07:05 fort.95.pe058
-rw-r----- 1 utg54rf drd        3129992 May  4 07:05 fort.95.pe059
-rw-r----- 1 utg54rf drd        3129992 May  4 07:05 fort.95.pe060
-rw-r----- 1 utg54rf drd        3129992 May  4 07:05 fort.95.pe061
-rw-r----- 1 utg54rf drd        3129992 May  4 07:05 fort.95.pe062
-rw-r----- 1 utg54rf drd        3129992 May  4 07:05 fort.95.pe063
-rw-r----- 1 utg54rf drd        3129992 May  4 07:05 fort.95.pe064
-rw-r----- 1 utg54rf drd        3129992 May  4 07:05 fort.95.pe065
-rw-r----- 1 utg54rf drd        3129992 May  4 07:05 fort.95.pe066
-rw-r----- 1 utg54rf drd        3129992 May  4 07:05 fort.95.pe067
-rw-r----- 1 utg54rf drd        3129992 May  4 07:05 fort.95.pe068
-rw-r----- 1 utg54rf drd        3129992 May  4 07:05 fort.95.pe069
-rw-r----- 1 utg54rf drd        3129992 May  4 07:05 fort.95.pe070
-rw-r----- 1 utg54rf drd        3129992 May  4 07:05 fort.95.pe071
-rw-r----- 1 utg54rf drd        3129992 May  4 07:05 fort.95.pe072
-rw-r----- 1 utg54rf drd        3129992 May  4 07:05 fort.95.pe073
-rw-r----- 1 utg54rf drd        3129992 May  4 07:05 fort.95.pe074
-rw-r----- 1 utg54rf drd        3129992 May  4 07:05 fort.95.pe075
-rw-r----- 1 utg54rf drd        3129992 May  4 07:05 fort.95.pe076
-rw-r----- 1 utg54rf drd        3129992 May  4 07:05 fort.95.pe077
-rw-r----- 1 utg54rf drd        3129992 May  4 07:05 fort.95.pe078
-rw-r----- 1 utg54rf drd        3129992 May  4 07:05 fort.95.pe079
-rw-r----- 1 utg54rf drd        3129992 May  4 07:05 fort.95.pe080
-rw-r----- 1 utg54rf drd        3129992 May  4 07:05 fort.95.pe081
-rw-r----- 1 utg54rf drd        3129992 May  4 07:05 fort.95.pe082
-rw-r----- 1 utg54rf drd        3129992 May  4 07:05 fort.95.pe083
-rw-r----- 1 utg54rf drd        3129992 May  4 07:05 fort.95.pe084
-rw-r----- 1 utg54rf drd        3129992 May  4 07:05 fort.95.pe085
-rw-r----- 1 utg54rf drd        3129992 May  4 07:05 fort.95.pe086
-rw-r----- 1 utg54rf drd        3129992 May  4 07:05 fort.95.pe087
-rw-r----- 1 utg54rf drd        3129992 May  4 07:05 fort.95.pe088
-rw-r----- 1 utg54rf drd        3129992 May  4 07:05 fort.95.pe089
-rw-r----- 1 utg54rf drd        3129992 May  4 07:05 fort.95.pe090
-rw-r----- 1 utg54rf drd        3129992 May  4 07:05 fort.95.pe091
-rw-r----- 1 utg54rf drd        3129992 May  4 07:05 fort.95.pe092
-rw-r----- 1 utg54rf drd        3129992 May  4 07:05 fort.95.pe093
-rw-r----- 1 utg54rf drd        3129992 May  4 07:05 fort.95.pe094
-rw-r----- 1 utg54rf drd        3129992 May  4 07:05 fort.95.pe095
-rw-r----- 1 utg54rf drd        3129992 May  4 07:05 fort.95.pe096
-rw-r----- 1 utg54rf drd        3129992 May  4 07:05 fort.95.pe097
-rw-r----- 1 utg54rf drd        3129992 May  4 07:05 fort.95.pe098
-rw-r----- 1 utg54rf drd        3129992 May  4 07:05 fort.95.pe099
-rw-r----- 1 utg54rf drd        3129992 May  4 07:05 fort.95.pe100
-rw-r----- 1 utg54rf drd        3129992 May  4 07:05 fort.95.pe101
-rw-r----- 1 utg54rf drd        3129992 May  4 07:05 fort.95.pe102
-rw-r----- 1 utg54rf drd        3129992 May  4 07:05 fort.95.pe103
-rw-r----- 1 utg54rf drd        3129992 May  4 07:05 fort.95.pe104
-rw-r----- 1 utg54rf drd        3129992 May  4 07:05 fort.95.pe105
-rw-r----- 1 utg54rf drd        3129992 May  4 07:05 fort.95.pe106
-rw-r----- 1 utg54rf drd        3129992 May  4 07:05 fort.95.pe107
-rw-r----- 1 utg54rf drd        3129992 May  4 07:05 fort.95.pe108
-rw-r----- 1 utg54rf drd        3129992 May  4 07:05 fort.95.pe109
-rw-r----- 1 utg54rf drd        3129992 May  4 07:05 fort.95.pe110
-rw-r----- 1 utg54rf drd        3129992 May  4 07:05 fort.95.pe111
-rw-r----- 1 utg54rf drd        3129992 May  4 07:05 fort.95.pe112
-rw-r----- 1 utg54rf drd        3129992 May  4 07:05 fort.95.pe113
-rw-r----- 1 utg54rf drd        3129992 May  4 07:05 fort.95.pe114
-rw-r----- 1 utg54rf drd        3129992 May  4 07:05 fort.95.pe115
-rw-r----- 1 utg54rf drd        3129992 May  4 07:05 fort.95.pe116
-rw-r----- 1 utg54rf drd        3129992 May  4 07:05 fort.95.pe117
-rw-r----- 1 utg54rf drd        3129992 May  4 07:05 fort.95.pe118
-rw-r----- 1 utg54rf drd        3129992 May  4 07:05 fort.95.pe119
-rw-r----- 1 utg54rf drd       48695830 May  4 07:08 fort.98
-rw-r----- 1 utg54rf drd         503965 May  4 07:08 HESSOPT.DAT
-rw-r----- 1 utg54rf genirc01       178 May  3 22:20 INPUT
-rw-r----- 1 utg54rf drd          29138 May  3 22:35 optc001
-rw-r----- 1 utg54rf drd          29138 May  3 22:43 optc002
-rw-r----- 1 utg54rf drd          29138 May  3 22:51 optc003
-rw-r----- 1 utg54rf drd          29138 May  3 22:59 optc004
-rw-r----- 1 utg54rf drd          29138 May  3 23:07 optc005
-rw-r----- 1 utg54rf drd          29138 May  3 23:15 optc006
-rw-r----- 1 utg54rf drd          29138 May  3 23:23 optc007
-rw-r----- 1 utg54rf drd          29138 May  3 23:31 optc008
-rw-r----- 1 utg54rf drd          29138 May  3 23:38 optc009
-rw-r----- 1 utg54rf drd          29138 May  3 23:46 optc010
-rw-r----- 1 utg54rf drd          29138 May  3 23:53 optc011
-rw-r----- 1 utg54rf drd          29138 May  4 00:00 optc012
-rw-r----- 1 utg54rf drd          29138 May  4 00:07 optc013
-rw-r----- 1 utg54rf drd          29138 May  4 00:15 optc014
-rw-r----- 1 utg54rf drd          29138 May  4 00:24 optc015
-rw-r----- 1 utg54rf drd          29138 May  4 00:32 optc016
-rw-r----- 1 utg54rf drd          29138 May  4 00:38 optc017
-rw-r----- 1 utg54rf drd          29138 May  4 00:45 optc018
-rw-r----- 1 utg54rf drd          29138 May  4 00:53 optc019
-rw-r----- 1 utg54rf drd          29138 May  4 01:02 optc020
-rw-r----- 1 utg54rf drd          29138 May  4 01:09 optc021
-rw-r----- 1 utg54rf drd          29138 May  4 01:15 optc022
-rw-r----- 1 utg54rf drd          29138 May  4 01:21 optc023
-rw-r----- 1 utg54rf drd          29138 May  4 01:30 optc024
-rw-r----- 1 utg54rf drd          29138 May  4 01:38 optc025
-rw-r----- 1 utg54rf drd          29138 May  4 01:44 optc026
-rw-r----- 1 utg54rf drd          29138 May  4 01:52 optc027
-rw-r----- 1 utg54rf drd          29138 May  4 02:00 optc028
-rw-r----- 1 utg54rf drd          29138 May  4 02:07 optc029
-rw-r----- 1 utg54rf drd          29138 May  4 02:16 optc030
-rw-r----- 1 utg54rf drd          29138 May  4 02:24 optc031
-rw-r----- 1 utg54rf drd          29138 May  4 02:30 optc032
-rw-r----- 1 utg54rf drd          29138 May  4 02:37 optc033
-rw-r----- 1 utg54rf drd          29138 May  4 02:44 optc034
-rw-r----- 1 utg54rf drd          29138 May  4 02:51 optc035
-rw-r----- 1 utg54rf drd          29138 May  4 02:57 optc036
-rw-r----- 1 utg54rf drd          29138 May  4 03:03 optc037
-rw-r----- 1 utg54rf drd          29138 May  4 03:09 optc038
-rw-r----- 1 utg54rf drd          29138 May  4 03:15 optc039
-rw-r----- 1 utg54rf drd          29138 May  4 03:21 optc040
-rw-r----- 1 utg54rf drd          29138 May  4 03:27 optc041
-rw-r----- 1 utg54rf drd          29138 May  4 03:33 optc042
-rw-r----- 1 utg54rf drd          29138 May  4 03:40 optc043
-rw-r----- 1 utg54rf drd          29138 May  4 03:46 optc044
-rw-r----- 1 utg54rf drd          29138 May  4 03:52 optc045
-rw-r----- 1 utg54rf drd          29138 May  4 03:58 optc046
-rw-r----- 1 utg54rf drd          29138 May  4 04:04 optc047
-rw-r----- 1 utg54rf drd          29138 May  4 04:11 optc048
-rw-r----- 1 utg54rf drd          29138 May  4 04:17 optc049
-rw-r----- 1 utg54rf drd          29138 May  4 04:23 optc050
-rw-r----- 1 utg54rf drd          29138 May  4 04:29 optc051
-rw-r----- 1 utg54rf drd          29138 May  4 04:35 optc052
-rw-r----- 1 utg54rf drd          29138 May  4 04:40 optc053
-rw-r----- 1 utg54rf drd          29138 May  4 04:46 optc054
-rw-r----- 1 utg54rf drd          29138 May  4 04:52 optc055
-rw-r----- 1 utg54rf drd          29138 May  4 04:58 optc056
-rw-r----- 1 utg54rf drd          29138 May  4 05:04 optc057
-rw-r----- 1 utg54rf drd          29138 May  4 05:09 optc058
-rw-r----- 1 utg54rf drd          29138 May  4 05:14 optc059
-rw-r----- 1 utg54rf drd          29138 May  4 05:24 optc060
-rw-r----- 1 utg54rf drd          29138 May  4 05:32 optc061
-rw-r----- 1 utg54rf drd          29138 May  4 05:40 optc062
-rw-r----- 1 utg54rf drd          29138 May  4 05:48 optc063
-rw-r----- 1 utg54rf drd          29138 May  4 05:55 optc064
-rw-r----- 1 utg54rf drd          29138 May  4 06:02 optc065
-rw-r----- 1 utg54rf drd          29138 May  4 06:10 optc066
-rw-r----- 1 utg54rf drd          29138 May  4 06:15 optc067
-rw-r----- 1 utg54rf drd          29138 May  4 06:20 optc068
-rw-r----- 1 utg54rf drd          29138 May  4 06:26 optc069
-rw-r----- 1 utg54rf drd          29138 May  4 06:31 optc070
-rw-r----- 1 utg54rf drd          29138 May  4 06:36 optc071
-rw-r----- 1 utg54rf drd          29138 May  4 06:42 optc072
-rw-r----- 1 utg54rf drd          29138 May  4 06:47 optc073
-rw-r----- 1 utg54rf drd          29138 May  4 06:53 optc074
-rw-r----- 1 utg54rf drd          29138 May  4 06:58 optc075
-rw-r----- 1 utg54rf drd          29138 May  4 07:03 optc076
-rw-r----- 1 utg54rf drd          29138 May  4 07:08 optc077
-rw-r----- 1 utg54rf drd       41316875 May  4 07:08 OPTINFO.DAT
-rw-r----- 1 utg54rf drd        9648407 May  4 07:08 SCFOUT.LOG
wave function binary file /linkhome/rech/genirc01/utg54rf/Shane/OT136/pressure_opt/1.5GPa/ot136.f9
file fort.98 saved as /linkhome/rech/genirc01/utg54rf/Shane/OT136/pressure_opt/1.5GPa/ot136.f98
file optcxxx saved as /linkhome/rech/genirc01/utg54rf/Shane/OT136/pressure_opt/1.5GPa/ot136.optstory/optc001 /linkhome/rech/genirc01/utg54rf/Shane/OT136/pressure_opt/1.5GPa/ot136.optstory/optc002 /linkhome/rech/genirc01/utg54rf/Shane/OT136/pressure_opt/1.5GPa/ot136.optstory/optc003 /linkhome/rech/genirc01/utg54rf/Shane/OT136/pressure_opt/1.5GPa/ot136.optstory/optc004 /linkhome/rech/genirc01/utg54rf/Shane/OT136/pressure_opt/1.5GPa/ot136.optstory/optc005 /linkhome/rech/genirc01/utg54rf/Shane/OT136/pressure_opt/1.5GPa/ot136.optstory/optc006 /linkhome/rech/genirc01/utg54rf/Shane/OT136/pressure_opt/1.5GPa/ot136.optstory/optc007 /linkhome/rech/genirc01/utg54rf/Shane/OT136/pressure_opt/1.5GPa/ot136.optstory/optc008 /linkhome/rech/genirc01/utg54rf/Shane/OT136/pressure_opt/1.5GPa/ot136.optstory/optc009 /linkhome/rech/genirc01/utg54rf/Shane/OT136/pressure_opt/1.5GPa/ot136.optstory/optc010 /linkhome/rech/genirc01/utg54rf/Shane/OT136/pressure_opt/1.5GPa/ot136.optstory/optc011 /linkhome/rech/genirc01/utg54rf/Shane/OT136/pressure_opt/1.5GPa/ot136.optstory/optc012 /linkhome/rech/genirc01/utg54rf/Shane/OT136/pressure_opt/1.5GPa/ot136.optstory/optc013 /linkhome/rech/genirc01/utg54rf/Shane/OT136/pressure_opt/1.5GPa/ot136.optstory/optc014 /linkhome/rech/genirc01/utg54rf/Shane/OT136/pressure_opt/1.5GPa/ot136.optstory/optc015 /linkhome/rech/genirc01/utg54rf/Shane/OT136/pressure_opt/1.5GPa/ot136.optstory/optc016 /linkhome/rech/genirc01/utg54rf/Shane/OT136/pressure_opt/1.5GPa/ot136.optstory/optc017 /linkhome/rech/genirc01/utg54rf/Shane/OT136/pressure_opt/1.5GPa/ot136.optstory/optc018 /linkhome/rech/genirc01/utg54rf/Shane/OT136/pressure_opt/1.5GPa/ot136.optstory/optc019 /linkhome/rech/genirc01/utg54rf/Shane/OT136/pressure_opt/1.5GPa/ot136.optstory/optc020 /linkhome/rech/genirc01/utg54rf/Shane/OT136/pressure_opt/1.5GPa/ot136.optstory/optc021 /linkhome/rech/genirc01/utg54rf/Shane/OT136/pressure_opt/1.5GPa/ot136.optstory/optc022 /linkhome/rech/genirc01/utg54rf/Shane/OT136/pressure_opt/1.5GPa/ot136.optstory/optc023 /linkhome/rech/genirc01/utg54rf/Shane/OT136/pressure_opt/1.5GPa/ot136.optstory/optc024 /linkhome/rech/genirc01/utg54rf/Shane/OT136/pressure_opt/1.5GPa/ot136.optstory/optc025 /linkhome/rech/genirc01/utg54rf/Shane/OT136/pressure_opt/1.5GPa/ot136.optstory/optc026 /linkhome/rech/genirc01/utg54rf/Shane/OT136/pressure_opt/1.5GPa/ot136.optstory/optc027 /linkhome/rech/genirc01/utg54rf/Shane/OT136/pressure_opt/1.5GPa/ot136.optstory/optc028 /linkhome/rech/genirc01/utg54rf/Shane/OT136/pressure_opt/1.5GPa/ot136.optstory/optc029 /linkhome/rech/genirc01/utg54rf/Shane/OT136/pressure_opt/1.5GPa/ot136.optstory/optc030 /linkhome/rech/genirc01/utg54rf/Shane/OT136/pressure_opt/1.5GPa/ot136.optstory/optc031 /linkhome/rech/genirc01/utg54rf/Shane/OT136/pressure_opt/1.5GPa/ot136.optstory/optc032 /linkhome/rech/genirc01/utg54rf/Shane/OT136/pressure_opt/1.5GPa/ot136.optstory/optc033 /linkhome/rech/genirc01/utg54rf/Shane/OT136/pressure_opt/1.5GPa/ot136.optstory/optc034 /linkhome/rech/genirc01/utg54rf/Shane/OT136/pressure_opt/1.5GPa/ot136.optstory/optc035 /linkhome/rech/genirc01/utg54rf/Shane/OT136/pressure_opt/1.5GPa/ot136.optstory/optc036 /linkhome/rech/genirc01/utg54rf/Shane/OT136/pressure_opt/1.5GPa/ot136.optstory/optc037 /linkhome/rech/genirc01/utg54rf/Shane/OT136/pressure_opt/1.5GPa/ot136.optstory/optc038 /linkhome/rech/genirc01/utg54rf/Shane/OT136/pressure_opt/1.5GPa/ot136.optstory/optc039 /linkhome/rech/genirc01/utg54rf/Shane/OT136/pressure_opt/1.5GPa/ot136.optstory/optc040 /linkhome/rech/genirc01/utg54rf/Shane/OT136/pressure_opt/1.5GPa/ot136.optstory/optc041 /linkhome/rech/genirc01/utg54rf/Shane/OT136/pressure_opt/1.5GPa/ot136.optstory/optc042 /linkhome/rech/genirc01/utg54rf/Shane/OT136/pressure_opt/1.5GPa/ot136.optstory/optc043 /linkhome/rech/genirc01/utg54rf/Shane/OT136/pressure_opt/1.5GPa/ot136.optstory/optc044 /linkhome/rech/genirc01/utg54rf/Shane/OT136/pressure_opt/1.5GPa/ot136.optstory/optc045 /linkhome/rech/genirc01/utg54rf/Shane/OT136/pressure_opt/1.5GPa/ot136.optstory/optc046 /linkhome/rech/genirc01/utg54rf/Shane/OT136/pressure_opt/1.5GPa/ot136.optstory/optc047 /linkhome/rech/genirc01/utg54rf/Shane/OT136/pressure_opt/1.5GPa/ot136.optstory/optc048 /linkhome/rech/genirc01/utg54rf/Shane/OT136/pressure_opt/1.5GPa/ot136.optstory/optc049 /linkhome/rech/genirc01/utg54rf/Shane/OT136/pressure_opt/1.5GPa/ot136.optstory/optc050 /linkhome/rech/genirc01/utg54rf/Shane/OT136/pressure_opt/1.5GPa/ot136.optstory/optc051 /linkhome/rech/genirc01/utg54rf/Shane/OT136/pressure_opt/1.5GPa/ot136.optstory/optc052 /linkhome/rech/genirc01/utg54rf/Shane/OT136/pressure_opt/1.5GPa/ot136.optstory/optc053 /linkhome/rech/genirc01/utg54rf/Shane/OT136/pressure_opt/1.5GPa/ot136.optstory/optc054 /linkhome/rech/genirc01/utg54rf/Shane/OT136/pressure_opt/1.5GPa/ot136.optstory/optc055 /linkhome/rech/genirc01/utg54rf/Shane/OT136/pressure_opt/1.5GPa/ot136.optstory/optc056 /linkhome/rech/genirc01/utg54rf/Shane/OT136/pressure_opt/1.5GPa/ot136.optstory/optc057 /linkhome/rech/genirc01/utg54rf/Shane/OT136/pressure_opt/1.5GPa/ot136.optstory/optc058 /linkhome/rech/genirc01/utg54rf/Shane/OT136/pressure_opt/1.5GPa/ot136.optstory/optc059 /linkhome/rech/genirc01/utg54rf/Shane/OT136/pressure_opt/1.5GPa/ot136.optstory/optc060 /linkhome/rech/genirc01/utg54rf/Shane/OT136/pressure_opt/1.5GPa/ot136.optstory/optc061 /linkhome/rech/genirc01/utg54rf/Shane/OT136/pressure_opt/1.5GPa/ot136.optstory/optc062 /linkhome/rech/genirc01/utg54rf/Shane/OT136/pressure_opt/1.5GPa/ot136.optstory/optc063 /linkhome/rech/genirc01/utg54rf/Shane/OT136/pressure_opt/1.5GPa/ot136.optstory/optc064 /linkhome/rech/genirc01/utg54rf/Shane/OT136/pressure_opt/1.5GPa/ot136.optstory/optc065 /linkhome/rech/genirc01/utg54rf/Shane/OT136/pressure_opt/1.5GPa/ot136.optstory/optc066 /linkhome/rech/genirc01/utg54rf/Shane/OT136/pressure_opt/1.5GPa/ot136.optstory/optc067 /linkhome/rech/genirc01/utg54rf/Shane/OT136/pressure_opt/1.5GPa/ot136.optstory/optc068 /linkhome/rech/genirc01/utg54rf/Shane/OT136/pressure_opt/1.5GPa/ot136.optstory/optc069 /linkhome/rech/genirc01/utg54rf/Shane/OT136/pressure_opt/1.5GPa/ot136.optstory/optc070 /linkhome/rech/genirc01/utg54rf/Shane/OT136/pressure_opt/1.5GPa/ot136.optstory/optc071 /linkhome/rech/genirc01/utg54rf/Shane/OT136/pressure_opt/1.5GPa/ot136.optstory/optc072 /linkhome/rech/genirc01/utg54rf/Shane/OT136/pressure_opt/1.5GPa/ot136.optstory/optc073 /linkhome/rech/genirc01/utg54rf/Shane/OT136/pressure_opt/1.5GPa/ot136.optstory/optc074 /linkhome/rech/genirc01/utg54rf/Shane/OT136/pressure_opt/1.5GPa/ot136.optstory/optc075 /linkhome/rech/genirc01/utg54rf/Shane/OT136/pressure_opt/1.5GPa/ot136.optstory/optc076 /linkhome/rech/genirc01/utg54rf/Shane/OT136/pressure_opt/1.5GPa/ot136.optstory/optc077
file HESSOPT.DAT saved as /linkhome/rech/genirc01/utg54rf/Shane/OT136/pressure_opt/1.5GPa/ot136.hessopt
file OPTINFO.DAT saved as /linkhome/rech/genirc01/utg54rf/Shane/OT136/pressure_opt/1.5GPa/ot136.optinfo
file SCFOUT.LOG saved as /linkhome/rech/genirc01/utg54rf/Shane/OT136/pressure_opt/1.5GPa/ot136.SCFLOG
file fort.20 saved as /linkhome/rech/genirc01/utg54rf/Shane/OT136/pressure_opt/1.5GPa/ot136.f20
file fort.33 saved as /linkhome/rech/genirc01/utg54rf/Shane/OT136/pressure_opt/1.5GPa/ot136.xyz
geometry input file fort.34 saved as /linkhome/rech/genirc01/utg54rf/Shane/OT136/pressure_opt/1.5GPa/ot136.gui
removing temporary directories /gpfsscratch/rech/drd/utg54rf/1697194/tmp_p102984_utg54rf from each node
