date Tue Mar 31 10:49:17 CEST 2020
master hostname node001
master system Linux node001 2.6.32-573.3.1.el6.x86_64 #1 SMP Thu Aug 13 12:55:33 CDT 2015 x86_64 x86_64 x86_64 GNU/Linux
user mducamp
output data in /home/mducamp/Shane/PBESOL0/opt_cell/full_opt/ot136.out
Pcrystal executable in /cm/shared/apps/CRYSTAL17/v1.0.2/bin/
input data in /home/mducamp/Shane/PBESOL0/opt_cell/full_opt/ot136.d12
Running on nodes: node001 node002 node003 node004
creating temporary directories /local/tmp_p65006_mducamp on each node
copying Pcrystal executable on each node
copying input file on each node
external geometry input from /home/mducamp/Shane/PBESOL0/opt_cell/full_opt/ot136.gui
external geometry input saved in /home/mducamp/Shane/PBESOL0/opt_cell/full_opt/ot136_inp.gui
MUF15_0
EXTERNAL
OPTGEOM
FULLOPTG
MAXCYCLE
200
ENDOPT
BASISSET
POB-DZVP
DFT
PBESOL0
ENDDFT
MAXCYCLE
250
FMIXING
70
LEVSHIFT
5 0
SHRINK
1 1
BIPOSIZE
6900000
END
Tue Mar 31 10:49:19 CEST 2020
          64 PROCESSORS WORKING

         
 *******************************************************************************
 *                                                                             *
 *                               CRYSTAL17                                     *
 *                      public : 1.0.2 - March 1st, 2018                       *
 *                       HTTP://WWW.CRYSTAL.UNITO.IT                           *
 *                                                                             *
 *                              MAIN AUTHORS                                   *
 *                                                                             *
 *  R. DOVESI(1,11), V.R. SAUNDERS(2), C. ROETTI(1,11), R. ORLANDO(1,11),      *
 *  C.M. ZICOVICH-WILSON(1,3), F. PASCALE(4), B. CIVALLERI(1,11),              *
 *  K. DOLL(5), N.M. HARRISON(2,6), I.J. BUSH(7), Ph. D'ARCO(8),               *
 *  M. LLUNELL(9), M. CAUSA'(10), Y. NOEL(8), L. MASCHIO(1,11), A. ERBA(1,11)  *
 *  M. RE'RAT(14), S. CASASSA(1,11)                                            *
 *                                                                             *
 *        CONTRIBUTIONS TO THE CODE HAVE ALSO BEEN GIVEN BY                    *
 *                                                                             *
 *  M. FERRABONE(1,11), M. DE LA PIERRE(1,11), M. FERRERO(1,11),               *
 *  J. BAIMA(1,11), E. ALBANESE(1,11), M.F. PEINTINGER(12), R. BAST(13),       *
 *  B. KIRTMAN(15), V. LACIVITA(1,11), R. DEMICHELIS(1,16)                     *
 *  G. BRANDEBURG(17), S. SALUSTRO(1,11), G. SANSONE(1,11)                     *
 *  M.T. RUGGIERO(18)                                                          *
 *                                                                             *
 * (1) THEORETICAL CHEMISTRY GROUP - UNIVERSITA' DI TORINO - TORINO (ITALY)    *
 * (2) COMPUTATIONAL SCIENCE & ENGINEERING DEPARTMENT - STFC DARESBURY (UK)    *
 * (3) UNIVERSIDAD AUTONOMA DEL ESTADO DE MORELOS - CUERNAVACA (MEXICO)        *
 * (4) UNIVERSITE' DE LORRAINE - NANCY (FRANCE)                                *
 * (5) UNIVERSITAET STUTTGART- STUTTGART (GERMANY)                             *
 * (6) IMPERIAL COLLEGE - LONDON (UK)                                          *
 * (7) OXFORD E-RESEARCH CENTRE - OXFORD (UK)                                  *
 * (8) UPMC - SORBONNE UNIVERSITES - PARIS (FRANCE)                            *
 * (9) UNIVERSIDAD DE BARCELONA - BARCELONA (SPAIN)                            *
 *(10) UNIVERSITA' DI NAPOLI "FEDERICO II" - NAPOLI (ITALY)                    *
 *(11) NIS - NANOSTRUCTURED INTERFACES AND SURFACES - TORINO (ITALY)           *
 *(12) MPI FUER CHEMISCHE ENERGIEKONVERSION - MUELHEIM AN DER RUHR (GERMANY)   *
 *(13) UNIVERSITY OF TROMSO - TROMSO (NORWAY)                                  *
 *(14) UNIVERSITE' DE PAU ET DES PAYS DE L'ADOUR - PAU (FRANCE)                *
 *(15) UNIVERSITY OF CALIFORNIA SANTA BARBARA - SANTA BARBARA (USA)            *
 *(16) CURTIN UNIVERSITY - PERTH (AUSTRALIA)                                   *
 *(17) UNIVERSITY COLLEGE LONDON - LONDON (UK)                                 *
 *(18) CAMBRIDGE UNIVERSITY - CAMBRIDGE (UK)                                   *
 *                                                                             *
 *******************************************************************************
 EEEEEEEEEE STARTING  DATE 31 03 2020 TIME 10:49:20.7
 Shawn                                                                           

 GEOMETRY INPUT FROM EXTERNAL FILE (FORTRAN UNIT 34)
 3D - CRYSTAL 

 *******************************************************************************
 LATTICE PARAMETERS  (ANGSTROMS AND DEGREES) - PRIMITIVE CELL
       A          B          C        ALPHA      BETA     GAMMA        VOLUME
   28.41595   20.99744   10.93617    90.00000  90.00000  90.00000   6525.200089

 NUMBER OF IRREDUCIBLE ATOMS IN THE CELL:   53

 CARTESIAN COORDINATES (ANGSTROM) - IRREDUCIBLE ATOMS AND SYMMETRY RELATED

 AT.IRR.  AT  AT.N.          X                   Y                   Z
     1     1    27    1.092014792108E+01  9.657721223829E+00 -2.679779252483E+00
     1     2    27    3.287827926081E+00 -9.657721223829E+00 -2.679779252483E+00
     1     3    27    1.092014792108E+01  8.409976441160E-01 -2.788306665503E+00
     1     4    27    3.287827926081E+00 -8.409976441160E-01 -2.788306665503E+00
     1     5    27   -1.092014792108E+01 -9.657721223829E+00  2.679779252483E+00
     1     6    27   -3.287827926081E+00  9.657721223829E+00  2.679779252483E+00
     1     7    27   -1.092014792108E+01 -8.409976441160E-01  2.788306665503E+00
     1     8    27   -3.287827926081E+00  8.409976441160E-01  2.788306665503E+00
     9     9    27    1.195796699879E+01  9.533553040766E+00  5.027792992925E+00
     9    10    27    2.250008848376E+00 -9.533553040766E+00  5.027792992925E+00
     9    11    27    1.195796699879E+01  9.651658271780E-01  4.402929250610E-01
     9    12    27    2.250008848376E+00 -9.651658271780E-01  4.402929250610E-01
     9    13    27   -1.195796699879E+01 -9.533553040766E+00 -5.027792992925E+00
     9    14    27   -2.250008848376E+00  9.533553040766E+00 -5.027792992925E+00
     9    15    27   -1.195796699879E+01 -9.651658271780E-01 -4.402929250610E-01
     9    16    27   -2.250008848376E+00  9.651658271780E-01 -4.402929250610E-01
    17    17    27    1.289328350236E+01 -9.578320812584E+00 -4.398973796193E+00
    17    18    27    1.314692344797E+00  9.578320812584E+00 -4.398973796193E+00
    17    19    27    1.289328350236E+01 -9.203980553600E-01 -1.069112121793E+00
    17    20    27    1.314692344797E+00  9.203980553600E-01 -1.069112121793E+00
    17    21    27   -1.289328350236E+01  9.578320812584E+00  4.398973796193E+00
    17    22    27   -1.314692344797E+00 -9.578320812584E+00  4.398973796193E+00
    17    23    27   -1.289328350236E+01  9.203980553600E-01  1.069112121793E+00
    17    24    27   -1.314692344797E+00 -9.203980553600E-01  1.069112121793E+00
    25    25     6    5.050520861187E+00 -9.061702923228E+00  6.056346254037E+00
    25    26     6    9.157454985974E+00  9.061702923228E+00  6.056346254037E+00
    25    27     6    5.050520861187E+00 -1.437015944716E+00 -5.882603360510E-01
    25    28     6    9.157454985974E+00  1.437015944716E+00 -5.882603360510E-01
    25    29     6   -5.050520861187E+00  9.061702923228E+00 -6.056346254037E+00
    25    30     6   -9.157454985974E+00 -9.061702923228E+00 -6.056346254037E+00
    25    31     6   -5.050520861187E+00  1.437015944716E+00  5.882603360510E-01
    25    32     6   -9.157454985974E+00 -1.437015944716E+00  5.882603360510E-01
    33    33     6    6.441900939083E+00 -9.074636580950E+00  5.565162784925E+00
    33    34     6    7.766074908078E+00  9.074636580950E+00  5.565162784925E+00
    33    35     6    6.441900939083E+00 -1.424082286995E+00 -9.707686693900E-02
    33    36     6    7.766074908078E+00  1.424082286995E+00 -9.707686693900E-02
    33    37     6   -6.441900939083E+00  9.074636580950E+00 -5.565162784925E+00
    33    38     6   -7.766074908078E+00 -9.074636580950E+00 -5.565162784925E+00
    33    39     6   -6.441900939083E+00  1.424082286995E+00  9.707686693900E-02
    33    40     6   -7.766074908078E+00 -1.424082286995E+00  9.707686693900E-02
    41    41     6    6.620018617105E+00 -9.092422705266E+00  4.189195861377E+00
    41    42     6    7.587957230056E+00  9.092422705266E+00  4.189195861377E+00
    41    43     6    6.620018617105E+00 -1.406296162679E+00  1.278890056609E+00
    41    44     6    7.587957230056E+00  1.406296162679E+00  1.278890056609E+00
    41    45     6   -6.620018617105E+00  9.092422705266E+00 -4.189195861377E+00
    41    46     6   -7.587957230056E+00 -9.092422705266E+00 -4.189195861377E+00
    41    47     6   -6.620018617105E+00  1.406296162679E+00 -1.278890056609E+00
    41    48     6   -7.587957230056E+00 -1.406296162679E+00 -1.278890056609E+00
    49    49     6    7.567074522145E+00 -9.061221658321E+00 -4.554730943777E+00
    49    50     6    6.640901325016E+00  9.061221658321E+00 -4.554730943777E+00
    49    51     6    7.567074522145E+00 -1.437497209623E+00 -9.133549742100E-01
    49    52     6    6.640901325016E+00  1.437497209623E+00 -9.133549742100E-01
    49    53     6   -7.567074522145E+00  9.061221658321E+00  4.554730943777E+00
    49    54     6   -6.640901325016E+00 -9.061221658321E+00  4.554730943777E+00
    49    55     6   -7.567074522145E+00  1.437497209623E+00  9.133549742100E-01
    49    56     6   -6.640901325016E+00 -1.437497209623E+00  9.133549742100E-01
    57    57     6    7.872794054293E+00 -8.988438758362E+00  3.632592732078E+00
    57    58     6    6.335181792868E+00  8.988438758362E+00  3.632592732078E+00
    57    59     6    7.872794054293E+00 -1.510280109582E+00  1.835493185908E+00
    57    60     6    6.335181792868E+00  1.510280109582E+00  1.835493185908E+00
    57    61     6   -7.872794054293E+00  8.988438758362E+00 -3.632592732078E+00
    57    62     6   -6.335181792868E+00 -8.988438758362E+00 -3.632592732078E+00
    57    63     6   -7.872794054293E+00  1.510280109582E+00 -1.835493185908E+00
    57    64     6   -6.335181792868E+00 -1.510280109582E+00 -1.835493185908E+00
    65    65     6    8.835653526587E+00 -9.017222213447E+00  5.828682122279E+00
    65    66     6    5.372322320574E+00  9.017222213447E+00  5.828682122279E+00
    65    67     6    8.835653526587E+00 -1.481496654498E+00 -3.605962042930E-01
    65    68     6    5.372322320574E+00  1.481496654498E+00 -3.605962042930E-01
    65    69     6   -8.835653526587E+00  9.017222213447E+00 -5.828682122279E+00
    65    70     6   -5.372322320574E+00 -9.017222213447E+00 -5.828682122279E+00
    65    71     6   -8.835653526587E+00  1.481496654498E+00  3.605962042930E-01
    65    72     6   -5.372322320574E+00 -1.481496654498E+00  3.605962042930E-01
    73    73     6    8.977405403316E+00 -8.943089938540E+00  4.444665601611E+00
    73    74     6    5.230570443845E+00  8.943089938540E+00  4.444665601611E+00
    73    75     6    8.977405403316E+00 -1.555628929404E+00  1.023420316376E+00
    73    76     6    5.230570443845E+00  1.555628929404E+00  1.023420316376E+00
    73    77     6   -8.977405403316E+00  8.943089938540E+00 -4.444665601611E+00
    73    78     6   -5.230570443845E+00 -8.943089938540E+00 -4.444665601611E+00
    73    79     6   -8.977405403316E+00  1.555628929404E+00 -1.023420316376E+00
    73    80     6   -5.230570443845E+00 -1.555628929404E+00 -1.023420316376E+00
    81    81     6    1.007160397087E+01 -9.219076576901E+00 -4.335445733382E+00
    81    82     6    4.136371876287E+00  9.219076576901E+00 -4.335445733382E+00
    81    83     6    1.007160397087E+01 -1.279642291044E+00 -1.132640184604E+00
    81    84     6    4.136371876287E+00  1.279642291044E+00 -1.132640184604E+00
    81    85     6   -1.007160397087E+01  9.219076576901E+00  4.335445733382E+00
    81    86     6   -4.136371876287E+00 -9.219076576901E+00  4.335445733382E+00
    81    87     6   -1.007160397087E+01  1.279642291044E+00  1.132640184604E+00
    81    88     6   -4.136371876287E+00 -1.279642291044E+00  1.132640184604E+00
    89    89     6    1.282228354748E+01 -9.463669311269E+00 -1.487097002115E+00
    89    90     6    1.385692299681E+00  9.463669311269E+00 -1.487097002115E+00
    89    91     6    1.282228354748E+01 -1.035049556675E+00 -3.980988915871E+00
    89    92     6    1.385692299681E+00  1.035049556675E+00 -3.980988915871E+00
    89    93     6   -1.282228354748E+01  9.463669311269E+00  1.487097002115E+00
    89    94     6   -1.385692299681E+00 -9.463669311269E+00  1.487097002115E+00
    89    95     6   -1.282228354748E+01  1.035049556675E+00  3.980988915871E+00
    89    96     6   -1.385692299681E+00 -1.035049556675E+00  3.980988915871E+00
    97    97     6    1.315349363982E+01 -9.828248496781E+00  8.927784417320E-01
    97    98     6    1.054482207346E+00  9.828248496781E+00  8.927784417320E-01
    97    99     6    1.315349363982E+01 -6.704703711630E-01  4.575307476254E+00
    97   100     6    1.054482207346E+00  6.704703711630E-01  4.575307476254E+00
    97   101     6   -1.315349363982E+01  9.828248496781E+00 -8.927784417320E-01
    97   102     6   -1.054482207346E+00 -9.828248496781E+00 -8.927784417320E-01
    97   103     6   -1.315349363982E+01  6.704703711630E-01 -4.575307476254E+00
    97   104     6   -1.054482207346E+00 -6.704703711630E-01 -4.575307476254E+00
   105   105     6    1.299170853207E+01 -1.032688477476E+01  3.251086391545E+00
   105   106     6    1.216267315093E+00  1.032688477476E+01  3.251086391545E+00
   105   107     6    1.299170853207E+01 -1.718340931810E-01  2.216999526441E+00
   105   108     6    1.216267315093E+00  1.718340931810E-01  2.216999526441E+00
   105   109     6   -1.299170853207E+01  1.032688477476E+01 -3.251086391545E+00
   105   110     6   -1.216267315093E+00 -1.032688477476E+01 -3.251086391545E+00
   105   111     6   -1.299170853207E+01  1.718340931810E-01 -2.216999526441E+00
   105   112     6   -1.216267315093E+00 -1.718340931810E-01 -2.216999526441E+00
   113   113     6    1.327357831619E+01 -8.965876544883E+00 -1.772747121420E-01
   113   114     6    9.343975309690E-01  8.965876544883E+00 -1.772747121420E-01
   113   115     6    1.327357831619E+01 -1.532842323061E+00 -5.290811205844E+00
   113   116     6    9.343975309690E-01  1.532842323061E+00 -5.290811205844E+00
   113   117     6   -1.327357831619E+01  8.965876544883E+00  1.772747121420E-01
   113   118     6   -9.343975309690E-01 -8.965876544883E+00  1.772747121420E-01
   113   119     6   -1.327357831619E+01  1.532842323061E+00  5.290811205844E+00
   113   120     6   -9.343975309690E-01 -1.532842323061E+00  5.290811205844E+00
   121   121     6    1.342281260850E+01 -9.425713218751E+00  2.186875053098E+00
   121   122     6    7.851632386620E-01  9.425713218751E+00  2.186875053098E+00
   121   123     6    1.342281260850E+01 -1.073005649194E+00  3.281210864888E+00
   121   124     6    7.851632386620E-01  1.073005649194E+00  3.281210864888E+00
   121   125     6   -1.342281260850E+01  9.425713218751E+00 -2.186875053098E+00
   121   126     6   -7.851632386620E-01 -9.425713218751E+00 -2.186875053098E+00
   121   127     6   -1.342281260850E+01  1.073005649194E+00 -3.281210864888E+00
   121   128     6   -7.851632386620E-01 -1.073005649194E+00 -3.281210864888E+00
   129   129     6    1.369515325415E+01 -7.665037233028E+00  3.258142236500E-02
   129   130     6    5.128225930150E-01  7.665037233028E+00  3.258142236500E-02
   129   131     6    1.369515325415E+01 -2.833681634917E+00 -5.500667340351E+00
   129   132     6    5.128225930150E-01  2.833681634917E+00 -5.500667340351E+00
   129   133     6   -1.369515325415E+01  7.665037233028E+00 -3.258142236500E-02
   129   134     6   -5.128225930150E-01 -7.665037233028E+00 -3.258142236500E-02
   129   135     6   -1.369515325415E+01  2.833681634917E+00  5.500667340351E+00
   129   136     6   -5.128225930150E-01 -2.833681634917E+00  5.500667340351E+00
   137   137     6    1.379155958045E+01 -8.118019522967E+00  2.430311824743E+00
   137   138     6    4.164162667090E-01  8.118019522967E+00  2.430311824743E+00
   137   139     6    1.379155958045E+01 -2.380699344977E+00  3.037774093243E+00
   137   140     6    4.164162667090E-01  2.380699344977E+00  3.037774093243E+00
   137   141     6   -1.379155958045E+01  8.118019522967E+00 -2.430311824743E+00
   137   142     6   -4.164162667090E-01 -8.118019522967E+00 -2.430311824743E+00
   137   143     6   -1.379155958045E+01  2.380699344977E+00 -3.037774093243E+00
   137   144     6   -4.164162667090E-01 -2.380699344977E+00 -3.037774093243E+00
   145   145     6    1.394158251136E+01 -7.253637418504E+00  1.341929747507E+00
   145   146     6    2.663933358040E-01  7.253637418504E+00  1.341929747507E+00
   145   147     6    1.394158251136E+01 -3.245081449441E+00  4.126156170479E+00
   145   148     6    2.663933358040E-01  3.245081449441E+00  4.126156170479E+00
   145   149     6   -1.394158251136E+01  7.253637418504E+00 -1.341929747507E+00
   145   150     6   -2.663933358040E-01 -7.253637418504E+00 -1.341929747507E+00
   145   151     6   -1.394158251136E+01  3.245081449441E+00 -4.126156170479E+00
   145   152     6   -2.663933358040E-01 -3.245081449441E+00 -4.126156170479E+00
   153   153     6    1.385728188227E+01  7.290295519043E+00  4.316886938913E+00
   153   154     6    3.506939648950E-01 -7.290295519043E+00  4.316886938913E+00
   153   155     6    1.385728188227E+01  3.208423348901E+00  1.151198979073E+00
   153   156     6    3.506939648950E-01 -3.208423348901E+00  1.151198979073E+00
   153   157     6   -1.385728188227E+01 -7.290295519043E+00 -4.316886938913E+00
   153   158     6   -3.506939648950E-01  7.290295519043E+00 -4.316886938913E+00
   153   159     6   -1.385728188227E+01 -3.208423348901E+00 -1.151198979073E+00
   153   160     6   -3.506939648950E-01  3.208423348901E+00 -1.151198979073E+00
   161   161     6    1.376630887272E+01  5.249359433972E+00  2.734042958993E+00
   161   162     6    4.416669744430E-01 -5.249359433972E+00  2.734042958993E+00
   161   163     6   -1.376630887272E+01 -5.249359433972E+00 -2.734042958993E+00
   161   164     6   -4.416669744430E-01  5.249359433972E+00 -2.734042958993E+00
   165   165     6   -1.396013396406E+01  6.176177910573E+00  3.523235984876E+00
   165   166     6   -2.478418831020E-01 -6.176177910573E+00  3.523235984876E+00
   165   167     6   -1.396013396406E+01  4.322540957372E+00  1.944849933110E+00
   165   168     6   -2.478418831020E-01 -4.322540957372E+00  1.944849933110E+00
   165   169     6    1.396013396406E+01 -6.176177910573E+00 -3.523235984876E+00
   165   170     6    2.478418831020E-01  6.176177910573E+00 -3.523235984876E+00
   165   171     6    1.396013396406E+01 -4.322540957372E+00 -1.944849933110E+00
   165   172     6    2.478418831020E-01  4.322540957372E+00 -1.944849933110E+00
   173   173     6   -1.258149976008E+01  6.126889860305E+00  3.542474202035E+00
   173   174     6   -1.626476087079E+00 -6.126889860305E+00  3.542474202035E+00
   173   175     6   -1.258149976008E+01  4.371829007640E+00  1.925611715951E+00
   173   176     6   -1.626476087079E+00 -4.371829007640E+00  1.925611715951E+00
   173   177     6    1.258149976008E+01 -6.126889860305E+00 -3.542474202035E+00
   173   178     6    1.626476087079E+00  6.126889860305E+00 -3.542474202035E+00
   173   179     6    1.258149976008E+01 -4.371829007640E+00 -1.925611715951E+00
   173   180     6    1.626476087079E+00  4.371829007640E+00 -1.925611715951E+00
   181   181     6   -1.190058558716E+01  5.249359433972E+00  2.734042958993E+00
   181   182     6   -2.307390260005E+00 -5.249359433972E+00  2.734042958993E+00
   181   183     6    1.190058558716E+01 -5.249359433972E+00 -2.734042958993E+00
   181   184     6    2.307390260005E+00  5.249359433972E+00 -2.734042958993E+00
   185   185     1    5.739353440178E+00 -9.169208048042E+00  3.581161011593E+00
   185   186     1    8.468622406984E+00  9.169208048042E+00  3.581161011593E+00
   185   187     1    5.739353440178E+00 -1.329510819903E+00  1.886924906393E+00
   185   188     1    8.468622406984E+00  1.329510819903E+00  1.886924906393E+00
   185   189     1   -5.739353440178E+00  9.169208048042E+00 -3.581161011593E+00
   185   190     1   -8.468622406984E+00 -9.169208048042E+00 -3.581161011593E+00
   185   191     1   -5.739353440178E+00  1.329510819903E+00 -1.886924906393E+00
   185   192     1   -8.468622406984E+00 -1.329510819903E+00 -1.886924906393E+00
   193   193     1    7.462079920941E+00 -9.067791494626E+00 -3.478218550076E+00
   193   194     1    6.745895926220E+00  9.067791494626E+00 -3.478218550076E+00
   193   195     1    7.462079920941E+00 -1.430927373319E+00 -1.989867367910E+00
   193   196     1    6.745895926220E+00  1.430927373319E+00 -1.989867367910E+00
   193   197     1   -7.462079920941E+00  9.067791494626E+00  3.478218550076E+00
   193   198     1   -6.745895926220E+00 -9.067791494626E+00  3.478218550076E+00
   193   199     1   -7.462079920941E+00  1.430927373319E+00  1.989867367910E+00
   193   200     1   -6.745895926220E+00 -1.430927373319E+00  1.989867367910E+00
   201   201     1    8.837810863904E+00  9.334915359725E+00 -1.965605783321E+00
   201   202     1    5.370164983258E+00 -9.334915359725E+00 -1.965605783321E+00
   201   203     1    8.837810863904E+00  1.163803508220E+00 -3.502480134665E+00
   201   204     1    5.370164983258E+00 -1.163803508220E+00 -3.502480134665E+00
   201   205     1   -8.837810863904E+00 -9.334915359725E+00  1.965605783321E+00
   201   206     1   -5.370164983258E+00  9.334915359725E+00  1.965605783321E+00
   201   207     1   -8.837810863904E+00 -1.163803508220E+00  3.502480134665E+00
   201   208     1   -5.370164983258E+00  1.163803508220E+00  3.502480134665E+00
   209   209     1    7.982154144068E+00 -8.928107822602E+00  2.556787905231E+00
   209   210     1    6.225821703093E+00  8.928107822602E+00  2.556787905231E+00
   209   211     1    7.982154144068E+00 -1.570611045343E+00  2.911298012755E+00
   209   212     1    6.225821703093E+00  1.570611045343E+00  2.911298012755E+00
   209   213     1   -7.982154144068E+00  8.928107822602E+00 -2.556787905231E+00
   209   214     1   -6.225821703093E+00 -8.928107822602E+00 -2.556787905231E+00
   209   215     1   -7.982154144068E+00  1.570611045343E+00 -2.911298012755E+00
   209   216     1   -6.225821703093E+00 -1.570611045343E+00 -2.911298012755E+00
   217   217     1    9.436391429329E+00 -1.060771645896E+01 -8.976486390880E-01
   217   218     1    4.771584417832E+00  1.060771645896E+01 -8.976486390880E-01
   217   219     1    9.436391429329E+00  1.089975910120E-01 -4.570437278898E+00
   217   220     1    4.771584417832E+00 -1.089975910120E-01 -4.570437278898E+00
   217   221     1   -9.436391429329E+00  1.060771645896E+01  8.976486390880E-01
   217   222     1   -4.771584417832E+00 -1.060771645896E+01  8.976486390880E-01
   217   223     1   -9.436391429329E+00 -1.089975910120E-01  4.570437278898E+00
   217   224     1   -4.771584417832E+00  1.089975910120E-01  4.570437278898E+00
   225   225     1    9.968306501225E+00 -8.887715016827E+00  4.035697404786E+00
   225   226     1    4.239669345936E+00  8.887715016827E+00  4.035697404786E+00
   225   227     1    9.968306501225E+00 -1.611003851118E+00  1.432388513200E+00
   225   228     1    4.239669345936E+00  1.611003851118E+00  1.432388513200E+00
   225   229     1   -9.968306501225E+00  8.887715016827E+00 -4.035697404786E+00
   225   230     1   -4.239669345936E+00 -8.887715016827E+00 -4.035697404786E+00
   225   231     1   -9.968306501225E+00  1.611003851118E+00 -1.432388513200E+00
   225   232     1   -4.239669345936E+00 -1.611003851118E+00 -1.432388513200E+00
   233   233     1    1.099860649361E+01  7.435123729582E+00 -1.583588019139E+00
   233   234     1    3.209369353554E+00 -7.435123729582E+00 -1.583588019139E+00
   233   235     1    1.099860649361E+01  3.063595138362E+00 -3.884497898847E+00
   233   236     1    3.209369353554E+00 -3.063595138362E+00 -3.884497898847E+00
   233   237     1   -1.099860649361E+01 -7.435123729582E+00  1.583588019139E+00
   233   238     1   -3.209369353554E+00  7.435123729582E+00  1.583588019139E+00
   233   239     1   -1.099860649361E+01 -3.063595138362E+00  3.884497898847E+00
   233   240     1   -3.209369353554E+00  3.063595138362E+00  3.884497898847E+00
   241   241     1    1.248258955182E+01  8.045555706453E+00 -1.556360081332E+00
   241   242     1    1.725386295340E+00 -8.045555706453E+00 -1.556360081332E+00
   241   243     1    1.248258955182E+01  2.453163161492E+00 -3.911725836654E+00
   241   244     1    1.725386295340E+00 -2.453163161492E+00 -3.911725836654E+00
   241   245     1   -1.248258955182E+01 -8.045555706453E+00  1.556360081332E+00
   241   246     1   -1.725386295340E+00  8.045555706453E+00  1.556360081332E+00
   241   247     1   -1.248258955182E+01 -2.453163161492E+00  3.911725836654E+00
   241   248     1   -1.725386295340E+00  2.453163161492E+00  3.911725836654E+00
   249   249     1    1.281168318462E+01  1.017122947383E+01  7.035194370550E-01
   249   250     1    1.396292662541E+00 -1.017122947383E+01  7.035194370550E-01
   249   251     1    1.281168318462E+01  3.274893941190E-01  4.764566480931E+00
   249   252     1    1.396292662541E+00 -3.274893941190E-01  4.764566480931E+00
   249   253     1   -1.281168318462E+01 -1.017122947383E+01 -7.035194370550E-01
   249   254     1   -1.396292662541E+00  1.017122947383E+01 -7.035194370550E-01
   249   255     1   -1.281168318462E+01 -3.274893941190E-01 -4.764566480931E+00
   249   256     1   -1.396292662541E+00  3.274893941190E-01 -4.764566480931E+00
   257   257     1    1.269202554129E+01  5.249359433972E+00  2.734042958993E+00
   257   258     1    1.515950305873E+00 -5.249359433972E+00  2.734042958993E+00
   257   259     1   -1.269202554129E+01 -5.249359433972E+00 -2.734042958993E+00
   257   260     1   -1.515950305873E+00  5.249359433972E+00 -2.734042958993E+00
   261   261     1    1.373398392794E+01 -6.965579704013E+00 -8.049876042050E-01
   261   262     1    4.739919192210E-01  6.965579704013E+00 -8.049876042050E-01
   261   263     1    1.373398392794E+01 -3.533139163932E+00 -4.663098313781E+00
   261   264     1    4.739919192210E-01  3.533139163932E+00 -4.663098313781E+00
   261   265     1   -1.373398392794E+01  6.965579704013E+00  8.049876042050E-01
   261   266     1   -4.739919192210E-01 -6.965579704013E+00  8.049876042050E-01
   261   267     1   -1.373398392794E+01  3.533139163932E+00  4.663098313781E+00
   261   268     1   -4.739919192210E-01 -3.533139163932E+00  4.663098313781E+00
   269   269     1    1.383013440313E+01 -7.763272421887E+00  3.461181954061E+00
   269   270     1    3.778414440270E-01  7.763272421887E+00  3.461181954061E+00
   269   271     1    1.383013440313E+01 -2.735446446057E+00  2.006903963926E+00
   269   272     1    3.778414440270E-01  2.735446446057E+00  2.006903963926E+00
   269   273     1   -1.383013440313E+01  7.763272421887E+00 -3.461181954061E+00
   269   274     1   -3.778414440270E-01 -7.763272421887E+00 -3.461181954061E+00
   269   275     1   -1.383013440313E+01  2.735446446057E+00 -2.006903963926E+00
   269   276     1   -3.778414440270E-01 -2.735446446057E+00 -2.006903963926E+00
   277   277     1   -1.428272945122E+01 -6.211658029085E+00  1.529562993533E+00
   277   278     1    7.475360405500E-02  6.211658029085E+00  1.529562993533E+00
   277   279     1   -1.428272945122E+01 -4.287060838860E+00  3.938522924453E+00
   277   280     1    7.475360405500E-02  4.287060838860E+00  3.938522924453E+00
   277   281     1    1.428272945122E+01  6.211658029085E+00 -1.529562993533E+00
   277   282     1   -7.475360405500E-02 -6.211658029085E+00 -1.529562993533E+00
   277   283     1    1.428272945122E+01  4.287060838860E+00 -3.938522924453E+00
   277   284     1   -7.475360405500E-02 -4.287060838860E+00 -3.938522924453E+00
   285   285     1   -1.206654497696E+01  6.815491549010E+00  4.191966901119E+00
   285   286     1   -2.141430870203E+00 -6.815491549010E+00  4.191966901119E+00
   285   287     1   -1.206654497696E+01  3.683227318935E+00  1.276119016867E+00
   285   288     1   -2.141430870203E+00 -3.683227318935E+00  1.276119016867E+00
   285   289     1    1.206654497696E+01 -6.815491549010E+00 -4.191966901119E+00
   285   290     1    2.141430870203E+00  6.815491549010E+00 -4.191966901119E+00
   285   291     1    1.206654497696E+01 -3.683227318935E+00 -1.276119016867E+00
   285   292     1    2.141430870203E+00  3.683227318935E+00 -1.276119016867E+00
   293   293     1   -1.082780580963E+01  5.249359433972E+00  2.734042958993E+00
   293   294     1   -3.380170037530E+00 -5.249359433972E+00  2.734042958993E+00
   293   295     1    1.082780580963E+01 -5.249359433972E+00 -2.734042958993E+00
   293   296     1    3.380170037530E+00  5.249359433972E+00 -2.734042958993E+00
   297   297     1    1.298040503139E+01  9.145366004763E+00 -3.713315841418E+00
   297   298     1    1.227570815768E+00 -9.145366004763E+00 -3.713315841418E+00
   297   299     1    1.298040503139E+01  1.353352863182E+00 -1.754770076568E+00
   297   300     1    1.227570815768E+00 -1.353352863182E+00 -1.754770076568E+00
   297   301     1   -1.298040503139E+01 -9.145366004763E+00  3.713315841418E+00
   297   302     1   -1.227570815768E+00  9.145366004763E+00  3.713315841418E+00
   297   303     1   -1.298040503139E+01 -1.353352863182E+00  1.754770076568E+00
   297   304     1   -1.227570815768E+00  1.353352863182E+00  1.754770076568E+00
   305   305     8    4.144828102802E+00 -9.354909990451E+00  5.231097798804E+00
   305   306     8    1.006314774436E+01  9.354909990451E+00  5.231097798804E+00
   305   307     8    4.144828102802E+00 -1.143808877494E+00  2.369881191820E-01
   305   308     8    1.006314774436E+01  1.143808877494E+00  2.369881191820E-01
   305   309     8   -4.144828102802E+00  9.354909990451E+00 -5.231097798804E+00
   305   310     8   -1.006314774436E+01 -9.354909990451E+00 -5.231097798804E+00
   305   311     8   -4.144828102802E+00  1.143808877494E+00 -2.369881191820E-01
   305   312     8   -1.006314774436E+01 -1.143808877494E+00 -2.369881191820E-01
   313   313     8    4.822910729057E+00 -8.767303480358E+00 -3.652604813284E+00
   313   314     8    9.385065118104E+00  8.767303480358E+00 -3.652604813284E+00
   313   315     8    4.822910729057E+00 -1.731415387586E+00 -1.815481104702E+00
   313   316     8    9.385065118104E+00  1.731415387586E+00 -1.815481104702E+00
   313   317     8   -4.822910729057E+00  8.767303480358E+00  3.652604813284E+00
   313   318     8   -9.385065118104E+00 -8.767303480358E+00  3.652604813284E+00
   313   319     8   -4.822910729057E+00  1.731415387586E+00  1.815481104702E+00
   313   320     8   -9.385065118104E+00 -1.731415387586E+00  1.815481104702E+00
   321   321     8    9.558919779115E+00  9.531933091463E+00 -1.326025975534E+00
   321   322     8    4.649056068046E+00 -9.531933091463E+00 -1.326025975534E+00
   321   323     8    9.558919779115E+00  9.667857764810E-01 -4.142059942452E+00
   321   324     8    4.649056068046E+00 -9.667857764810E-01 -4.142059942452E+00
   321   325     8   -9.558919779115E+00 -9.531933091463E+00  1.326025975534E+00
   321   326     8   -4.649056068046E+00  9.531933091463E+00  1.326025975534E+00
   321   327     8   -9.558919779115E+00 -9.667857764810E-01  4.142059942452E+00
   321   328     8   -4.649056068046E+00  9.667857764810E-01  4.142059942452E+00
   329   329     8    9.984469697046E+00 -9.769581222685E+00 -3.179362319134E+00
   329   330     8    4.223506150115E+00  9.769581222685E+00 -3.179362319134E+00
   329   331     8    9.984469697046E+00 -7.291376452590E-01 -2.288723598852E+00
   329   332     8    4.223506150115E+00  7.291376452590E-01 -2.288723598852E+00
   329   333     8   -9.984469697046E+00  9.769581222685E+00  3.179362319134E+00
   329   334     8   -4.223506150115E+00 -9.769581222685E+00  3.179362319134E+00
   329   335     8   -9.984469697046E+00  7.291376452590E-01  2.288723598852E+00
   329   336     8   -4.223506150115E+00 -7.291376452590E-01  2.288723598852E+00
   337   337     8    1.163995020955E+01  7.981858546223E+00 -2.054537547986E+00
   337   338     8    2.568025637610E+00 -7.981858546223E+00 -2.054537547986E+00
   337   339     8    1.163995020955E+01  2.516860321721E+00 -3.413548370000E+00
   337   340     8    2.568025637610E+00 -2.516860321721E+00 -3.413548370000E+00
   337   341     8   -1.163995020955E+01 -7.981858546223E+00  2.054537547986E+00
   337   342     8   -2.568025637610E+00  7.981858546223E+00  2.054537547986E+00
   337   343     8   -1.163995020955E+01 -2.516860321721E+00  3.413548370000E+00
   337   344     8   -2.568025637610E+00  2.516860321721E+00  3.413548370000E+00
   345   345     8    1.116975440513E+01 -8.936461379937E+00 -4.875949795948E+00
   345   346     8    3.038221442032E+00  8.936461379937E+00 -4.875949795948E+00
   345   347     8    1.116975440513E+01 -1.562257488008E+00 -5.921361220380E-01
   345   348     8    3.038221442032E+00  1.562257488008E+00 -5.921361220380E-01
   345   349     8   -1.116975440513E+01  8.936461379937E+00  4.875949795948E+00
   345   350     8   -3.038221442032E+00 -8.936461379937E+00  4.875949795948E+00
   345   351     8   -1.116975440513E+01  1.562257488008E+00  5.921361220380E-01
   345   352     8   -3.038221442032E+00 -1.562257488008E+00  5.921361220380E-01
   353   353     8    1.218933028731E+01  1.042801058465E+01 -1.446179412895E+00
   353   354     8    2.018645559854E+00 -1.042801058465E+01 -1.446179412895E+00
   353   355     8    1.218933028731E+01  7.070828329100E-02 -4.021906505091E+00
   353   356     8    2.018645559854E+00 -7.070828329100E-02 -4.021906505091E+00
   353   357     8   -1.218933028731E+01 -1.042801058465E+01  1.446179412895E+00
   353   358     8   -2.018645559854E+00  1.042801058465E+01  1.446179412895E+00
   353   359     8   -1.218933028731E+01 -7.070828329100E-02  4.021906505091E+00
   353   360     8   -2.018645559854E+00  7.070828329100E-02  4.021906505091E+00
   361   361     8    1.180057510395E+01  1.030226451368E+01  3.252540996316E+00
   361   362     8    2.407400743206E+00 -1.030226451368E+01  3.252540996316E+00
   361   363     8    1.180057510395E+01  1.964543542600E-01  2.215544921670E+00
   361   364     8    2.407400743206E+00 -1.964543542600E-01  2.215544921670E+00
   361   365     8   -1.180057510395E+01 -1.030226451368E+01 -3.252540996316E+00
   361   366     8   -2.407400743206E+00  1.030226451368E+01 -3.252540996316E+00
   361   367     8   -1.180057510395E+01 -1.964543542600E-01 -2.215544921670E+00
   361   368     8   -2.407400743206E+00  1.964543542600E-01 -2.215544921670E+00
   369   369     8    1.223523788349E+01  9.683211178558E+00 -4.027819537321E+00
   369   370     8    1.972737963670E+00 -9.683211178558E+00 -4.027819537321E+00
   369   371     8    1.223523788349E+01  8.155076893860E-01 -1.440266380665E+00
   369   372     8    1.972737963670E+00 -8.155076893860E-01 -1.440266380665E+00
   369   373     8   -1.223523788349E+01 -9.683211178558E+00  4.027819537321E+00
   369   374     8   -1.972737963670E+00  9.683211178558E+00  4.027819537321E+00
   369   375     8   -1.223523788349E+01 -8.155076893860E-01  1.440266380665E+00
   369   376     8   -1.972737963670E+00  8.155076893860E-01  1.440266380665E+00
   377   377     8    1.264327149453E+01  7.542308874113E+00  4.263517037371E+00
   377   378     8    1.564704352631E+00 -7.542308874113E+00  4.263517037371E+00
   377   379     8    1.264327149453E+01  2.956409993832E+00  1.204568880615E+00
   377   380     8    1.564704352631E+00 -2.956409993832E+00  1.204568880615E+00
   377   381     8   -1.264327149453E+01 -7.542308874113E+00 -4.263517037371E+00
   377   382     8   -1.564704352631E+00  7.542308874113E+00 -4.263517037371E+00
   377   383     8   -1.264327149453E+01 -2.956409993832E+00 -1.204568880615E+00
   377   384     8   -1.564704352631E+00  2.956409993832E+00 -1.204568880615E+00
   385   385     8    1.306152253140E+01 -8.806097920617E+00 -2.526371683658E+00
   385   386     8    1.146453315763E+00  8.806097920617E+00 -2.526371683658E+00
   385   387     8    1.306152253140E+01 -1.692620947328E+00 -2.941714234328E+00
   385   388     8    1.146453315763E+00  1.692620947328E+00 -2.941714234328E+00
   385   389     8   -1.306152253140E+01  8.806097920617E+00  2.526371683658E+00
   385   390     8   -1.146453315763E+00 -8.806097920617E+00  2.526371683658E+00
   385   391     8   -1.306152253140E+01  1.692620947328E+00  2.941714234328E+00
   385   392     8   -1.146453315763E+00 -1.692620947328E+00  2.941714234328E+00
   393   393     8    1.370075299163E+01 -1.071385488393E+01  4.262723183591E+00
   393   394     8    5.072228555350E-01  1.071385488393E+01  4.262723183591E+00
   393   395     8    1.370075299163E+01  2.151360159890E-01  1.205362734395E+00
   393   396     8    5.072228555350E-01 -2.151360159890E-01  1.205362734395E+00
   393   397     8   -1.370075299163E+01  1.071385488393E+01 -4.262723183591E+00
   393   398     8   -5.072228555350E-01 -1.071385488393E+01 -4.262723183591E+00
   393   399     8   -1.370075299163E+01 -2.151360159890E-01 -1.205362734395E+00
   393   400     8   -5.072228555350E-01  2.151360159890E-01 -1.205362734395E+00
   401   401     8    1.374386407233E+01 -7.969355274496E+00 -5.065043650586E+00
   401   402     8    4.641117748270E-01  7.969355274496E+00 -5.065043650586E+00
   401   403     8    1.374386407233E+01 -2.529363593449E+00 -4.030422674010E-01
   401   404     8    4.641117748270E-01  2.529363593449E+00 -4.030422674010E-01
   401   405     8   -1.374386407233E+01  7.969355274496E+00  5.065043650586E+00
   401   406     8   -4.641117748270E-01 -7.969355274496E+00  5.065043650586E+00
   401   407     8   -1.374386407233E+01  2.529363593449E+00  4.030422674010E-01
   401   408     8   -4.641117748270E-01 -2.529363593449E+00  4.030422674010E-01

 SPACE  GROUP  N.                     :   52
 NUMBER OF SYMMETRY OPERATORS         :    8
 *******************************************************************************
 LATTICE PARAMETERS (ANGSTROMS AND DEGREES) - BOHR = 0.5291772083 ANGSTROM
 PRIMITIVE CELL - CENTRING CODE 1/0 VOLUME=  6525.200089 - DENSITY  1.303 g/cm^3
         A              B              C           ALPHA      BETA       GAMMA 
    28.41595169    20.99743774    10.93617184    90.000000  90.000000  90.000000
 *******************************************************************************
 ATOMS IN THE ASYMMETRIC UNIT   53 - ATOMS IN THE UNIT CELL:  408
     ATOM                 X/A                 Y/B                 Z/C    
 *******************************************************************************
      1 T  27 CO    3.842963993802E-01  4.599476062414E-01 -2.450381443040E-01
      2 F  27 CO    1.157036006202E-01 -4.599476062414E-01 -2.450381443040E-01
      3 F  27 CO    3.842963993802E-01  4.005239375841E-02 -2.549618556947E-01
      4 F  27 CO    1.157036006202E-01 -4.005239375841E-02 -2.549618556947E-01
      5 F  27 CO   -3.842963993802E-01 -4.599476062414E-01  2.450381443040E-01
      6 F  27 CO   -1.157036006202E-01  4.599476062414E-01  2.450381443040E-01
      7 F  27 CO   -3.842963993802E-01 -4.005239375841E-02  2.549618556947E-01
      8 F  27 CO   -1.157036006202E-01  4.005239375841E-02  2.549618556947E-01
      9 T  27 CO    4.208188107662E-01  4.540341140989E-01  4.597397579631E-01
     10 F  27 CO    7.918118923419E-02 -4.540341140989E-01  4.597397579631E-01
     11 F  27 CO    4.208188107662E-01  4.596588590082E-02  4.026024203567E-02
     12 F  27 CO    7.918118923419E-02 -4.596588590082E-02  4.026024203567E-02
     13 F  27 CO   -4.208188107662E-01 -4.540341140989E-01 -4.597397579631E-01
     14 F  27 CO   -7.918118923419E-02  4.540341140989E-01 -4.597397579631E-01
     15 F  27 CO   -4.208188107662E-01 -4.596588590082E-02 -4.026024203567E-02
     16 F  27 CO   -7.918118923419E-02  4.596588590082E-02 -4.026024203567E-02
     17 T  27 CO    4.537340026852E-01 -4.561661728949E-01 -4.022407348897E-01
     18 F  27 CO    4.626599731519E-02  4.561661728949E-01 -4.022407348897E-01
     19 F  27 CO    4.537340026852E-01 -4.383382710484E-02 -9.775926510899E-02
     20 F  27 CO    4.626599731519E-02  4.383382710484E-02 -9.775926510899E-02
     21 F  27 CO   -4.537340026852E-01  4.561661728949E-01  4.022407348897E-01
     22 F  27 CO   -4.626599731519E-02 -4.561661728949E-01  4.022407348897E-01
     23 F  27 CO   -4.537340026852E-01  4.383382710484E-02  9.775926510899E-02
     24 F  27 CO   -4.626599731519E-02 -4.383382710484E-02  9.775926510899E-02
     25 T   6 C     1.777354112761E-01 -4.315623190412E-01 -4.462096659728E-01
     26 F   6 C     3.222645887243E-01  4.315623190412E-01 -4.462096659728E-01
     27 F   6 C     1.777354112761E-01 -6.843768095852E-02 -5.379033402845E-02
     28 F   6 C     3.222645887243E-01  6.843768095852E-02 -5.379033402845E-02
     29 F   6 C    -1.777354112761E-01  4.315623190412E-01  4.462096659728E-01
     30 F   6 C    -3.222645887243E-01 -4.315623190412E-01  4.462096659728E-01
     31 F   6 C    -1.777354112761E-01  6.843768095852E-02  5.379033402845E-02
     32 F   6 C    -3.222645887243E-01 -6.843768095852E-02  5.379033402845E-02
     33 T   6 C     2.267001650476E-01 -4.321782826595E-01 -4.911233228244E-01
     34 F   6 C     2.732998349528E-01  4.321782826595E-01 -4.911233228244E-01
     35 F   6 C     2.267001650476E-01 -6.782171734031E-02 -8.876677176875E-03
     36 F   6 C     2.732998349528E-01  6.782171734031E-02 -8.876677176875E-03
     37 F   6 C    -2.267001650476E-01  4.321782826595E-01  4.911233228244E-01
     38 F   6 C    -2.732998349528E-01 -4.321782826595E-01  4.911233228244E-01
     39 F   6 C    -2.267001650476E-01  6.782171734031E-02  8.876677176875E-03
     40 F   6 C    -2.732998349528E-01 -6.782171734031E-02  8.876677176875E-03
     41 T   6 C     2.329683935391E-01 -4.330253443124E-01  3.830587086778E-01
     42 F   6 C     2.670316064613E-01  4.330253443124E-01  3.830587086778E-01
     43 F   6 C     2.329683935391E-01 -6.697465568738E-02  1.169412913209E-01
     44 F   6 C     2.670316064613E-01  6.697465568738E-02  1.169412913209E-01
     45 F   6 C    -2.329683935391E-01  4.330253443124E-01 -3.830587086778E-01
     46 F   6 C    -2.670316064613E-01 -4.330253443124E-01 -3.830587086778E-01
     47 F   6 C    -2.329683935391E-01  6.697465568738E-02 -1.169412913209E-01
     48 F   6 C    -2.670316064613E-01 -6.697465568738E-02 -1.169412913209E-01
     49 T   6 C     2.662967126194E-01 -4.315393988681E-01 -4.164831178661E-01
     50 F   6 C     2.337032873809E-01  4.315393988681E-01 -4.164831178661E-01
     51 F   6 C     2.662967126194E-01 -6.846060113160E-02 -8.351688213268E-02
     52 F   6 C     2.337032873809E-01  6.846060113160E-02 -8.351688213268E-02
     53 F   6 C    -2.662967126194E-01  4.315393988681E-01  4.164831178661E-01
     54 F   6 C    -2.337032873809E-01 -4.315393988681E-01  4.164831178661E-01
     55 F   6 C    -2.662967126194E-01  6.846060113160E-02  8.351688213268E-02
     56 F   6 C    -2.337032873809E-01 -6.846060113160E-02  8.351688213268E-02
     57 T   6 C     2.770554419218E-01 -4.280731235599E-01  3.321630993507E-01
     58 F   6 C     2.229445580786E-01  4.280731235599E-01  3.321630993507E-01
     59 F   6 C     2.770554419218E-01 -7.192687643978E-02  1.678369006480E-01
     60 F   6 C     2.229445580786E-01  7.192687643978E-02  1.678369006480E-01
     61 F   6 C    -2.770554419218E-01  4.280731235599E-01 -3.321630993507E-01
     62 F   6 C    -2.229445580786E-01 -4.280731235599E-01 -3.321630993507E-01
     63 F   6 C    -2.770554419218E-01  7.192687643978E-02 -1.678369006480E-01
     64 F   6 C    -2.229445580786E-01 -7.192687643978E-02 -1.678369006480E-01
     65 T   6 C     3.109399122592E-01 -4.294439315341E-01 -4.670272002227E-01
     66 F   6 C     1.890600877412E-01  4.294439315341E-01 -4.670272002227E-01
     67 F   6 C     3.109399122592E-01 -7.055606846568E-02 -3.297279977862E-02
     68 F   6 C     1.890600877412E-01  7.055606846568E-02 -3.297279977862E-02
     69 F   6 C    -3.109399122592E-01  4.294439315341E-01  4.670272002227E-01
     70 F   6 C    -1.890600877412E-01 -4.294439315341E-01  4.670272002227E-01
     71 F   6 C    -3.109399122592E-01  7.055606846568E-02  3.297279977862E-02
     72 F   6 C    -1.890600877412E-01 -7.055606846568E-02  3.297279977862E-02
     73 T   6 C     3.159283736084E-01 -4.259133924350E-01  4.064187787339E-01
     74 F   6 C     1.840716263920E-01  4.259133924350E-01  4.064187787339E-01
     75 F   6 C     3.159283736084E-01 -7.408660756471E-02  9.358122126493E-02
     76 F   6 C     1.840716263920E-01  7.408660756471E-02  9.358122126493E-02
     77 F   6 C    -3.159283736084E-01  4.259133924350E-01 -4.064187787339E-01
     78 F   6 C    -1.840716263920E-01 -4.259133924350E-01 -4.064187787339E-01
     79 F   6 C    -3.159283736084E-01  7.408660756471E-02 -9.358122126493E-02
     80 F   6 C    -1.840716263920E-01 -7.408660756471E-02 -9.358122126493E-02
     81 T   6 C     3.544348638830E-01 -4.390572170212E-01 -3.964317494638E-01
     82 F   6 C     1.455651361174E-01  4.390572170212E-01 -3.964317494638E-01
     83 F   6 C     3.544348638830E-01 -6.094278297852E-02 -1.035682505349E-01
     84 F   6 C     1.455651361174E-01  6.094278297852E-02 -1.035682505349E-01
     85 F   6 C    -3.544348638830E-01  4.390572170212E-01  3.964317494638E-01
     86 F   6 C    -1.455651361174E-01 -4.390572170212E-01  3.964317494638E-01
     87 F   6 C    -3.544348638830E-01  6.094278297852E-02  1.035682505349E-01
     88 F   6 C    -1.455651361174E-01 -6.094278297852E-02  1.035682505349E-01
     89 T   6 C     4.512354076831E-01 -4.507059113736E-01 -1.359796667806E-01
     90 F   6 C     4.876459231731E-02  4.507059113736E-01 -1.359796667806E-01
     91 F   6 C     4.512354076831E-01 -4.929408862613E-02 -3.640203332181E-01
     92 F   6 C     4.876459231731E-02  4.929408862613E-02 -3.640203332181E-01
     93 F   6 C    -4.512354076831E-01  4.507059113736E-01  1.359796667806E-01
     94 F   6 C    -4.876459231731E-02 -4.507059113736E-01  1.359796667806E-01
     95 F   6 C    -4.512354076831E-01  4.929408862613E-02  3.640203332181E-01
     96 F   6 C    -4.876459231731E-02 -4.929408862613E-02  3.640203332181E-01
     97 T   6 C     4.628911880665E-01 -4.680689434777E-01  8.163537068731E-02
     98 F   6 C     3.710881193388E-02  4.680689434777E-01  8.163537068731E-02
     99 F   6 C     4.628911880665E-01 -3.193105652204E-02  4.183646293114E-01
    100 F   6 C     3.710881193388E-02  3.193105652204E-02  4.183646293114E-01
    101 F   6 C    -4.628911880665E-01  4.680689434777E-01 -8.163537068731E-02
    102 F   6 C    -3.710881193388E-02 -4.680689434777E-01 -8.163537068731E-02
    103 F   6 C    -4.628911880665E-01  3.193105652204E-02 -4.183646293114E-01
    104 F   6 C    -3.710881193388E-02 -3.193105652204E-02 -4.183646293114E-01
    105 T   6 C     4.571977272425E-01 -4.918164256350E-01  2.972782835071E-01
    106 F   6 C     4.280227275784E-02  4.918164256350E-01  2.972782835071E-01
    107 F   6 C     4.571977272425E-01 -8.183574364753E-03  2.027217164916E-01
    108 F   6 C     4.280227275784E-02  8.183574364753E-03  2.027217164916E-01
    109 F   6 C    -4.571977272425E-01  4.918164256350E-01 -2.972782835071E-01
    110 F   6 C    -4.280227275784E-02 -4.918164256350E-01 -2.972782835071E-01
    111 F   6 C    -4.571977272425E-01  8.183574364753E-03 -2.027217164916E-01
    112 F   6 C    -4.280227275784E-02 -8.183574364753E-03 -2.027217164916E-01
    113 T   6 C     4.671171481072E-01 -4.269986013367E-01 -1.620994208947E-02
    114 F   6 C     3.288285189324E-02  4.269986013367E-01 -1.620994208947E-02
    115 F   6 C     4.671171481072E-01 -7.300139866305E-02 -4.837900579093E-01
    116 F   6 C     3.288285189324E-02  7.300139866305E-02 -4.837900579093E-01
    117 F   6 C    -4.671171481072E-01  4.269986013367E-01  1.620994208947E-02
    118 F   6 C    -3.288285189324E-02 -4.269986013367E-01  1.620994208947E-02
    119 F   6 C    -4.671171481072E-01  7.300139866305E-02  4.837900579093E-01
    120 F   6 C    -3.288285189324E-02 -7.300139866305E-02  4.837900579093E-01
    121 T   6 C     4.723689268937E-01 -4.488982578401E-01  1.999671444352E-01
    122 F   6 C     2.763107310671E-02  4.488982578401E-01  1.999671444352E-01
    123 F   6 C     4.723689268937E-01 -5.110174215968E-02  3.000328555635E-01
    124 F   6 C     2.763107310671E-02  5.110174215968E-02  3.000328555635E-01
    125 F   6 C    -4.723689268937E-01  4.488982578401E-01 -1.999671444352E-01
    126 F   6 C    -2.763107310671E-02 -4.488982578401E-01 -1.999671444352E-01
    127 F   6 C    -4.723689268937E-01  5.110174215968E-02 -3.000328555635E-01
    128 F   6 C    -2.763107310671E-02 -5.110174215968E-02 -3.000328555635E-01
    129 T   6 C     4.819530030695E-01 -3.650463132424E-01  2.979234676777E-03
    130 F   6 C     1.804699693088E-02  3.650463132424E-01  2.979234676777E-03
    131 F   6 C     4.819530030695E-01 -1.349536867573E-01  4.970207653245E-01
    132 F   6 C     1.804699693088E-02  1.349536867573E-01  4.970207653245E-01
    133 F   6 C    -4.819530030695E-01  3.650463132424E-01 -2.979234676777E-03
    134 F   6 C    -1.804699693088E-02 -3.650463132424E-01 -2.979234676777E-03
    135 F   6 C    -4.819530030695E-01  1.349536867573E-01 -4.970207653245E-01
    136 F   6 C    -1.804699693088E-02 -1.349536867573E-01 -4.970207653245E-01
    137 T   6 C     4.853456864237E-01 -3.866195306815E-01  2.222269237525E-01
    138 F   6 C     1.465431357671E-02  3.866195306815E-01  2.222269237525E-01
    139 F   6 C     4.853456864237E-01 -1.133804693182E-01  2.777730762462E-01
    140 F   6 C     1.465431357671E-02  1.133804693182E-01  2.777730762462E-01
    141 F   6 C    -4.853456864237E-01  3.866195306815E-01 -2.222269237525E-01
    142 F   6 C    -1.465431357671E-02 -3.866195306815E-01 -2.222269237525E-01
    143 F   6 C    -4.853456864237E-01  1.133804693182E-01 -2.777730762462E-01
    144 F   6 C    -1.465431357671E-02 -1.133804693182E-01 -2.777730762462E-01
    145 T   6 C     4.906252185864E-01 -3.454534553091E-01  1.227056201778E-01
    146 F   6 C     9.374781413970E-03  3.454534553091E-01  1.227056201778E-01
    147 F   6 C     4.906252185864E-01 -1.545465446907E-01  3.772943798210E-01
    148 F   6 C     9.374781413970E-03  1.545465446907E-01  3.772943798210E-01
    149 F   6 C    -4.906252185864E-01  3.454534553091E-01 -1.227056201778E-01
    150 F   6 C    -9.374781413970E-03 -3.454534553091E-01 -1.227056201778E-01
    151 F   6 C    -4.906252185864E-01  1.545465446907E-01 -3.772943798210E-01
    152 F   6 C    -9.374781413970E-03 -1.545465446907E-01 -3.772943798210E-01
    153 T   6 C     4.876585528911E-01  3.471992921583E-01  3.947347393265E-01
    154 F   6 C     1.234144710928E-02 -3.471992921583E-01  3.947347393265E-01
    155 F   6 C     4.876585528911E-01  1.528007078414E-01  1.052652606722E-01
    156 F   6 C     1.234144710928E-02 -1.528007078414E-01  1.052652606722E-01
    157 F   6 C    -4.876585528911E-01 -3.471992921583E-01 -3.947347393265E-01
    158 F   6 C    -1.234144710928E-02  3.471992921583E-01 -3.947347393265E-01
    159 F   6 C    -4.876585528911E-01 -1.528007078414E-01 -1.052652606722E-01
    160 F   6 C    -1.234144710928E-02  1.528007078414E-01 -1.052652606722E-01
    161 T   6 C     4.844570761105E-01  2.499999999999E-01  2.499999999994E-01
    162 F   6 C     1.554292388988E-02 -2.499999999999E-01  2.499999999994E-01
    163 F   6 C    -4.844570761105E-01 -2.499999999999E-01 -2.499999999994E-01
    164 F   6 C    -1.554292388988E-02  2.499999999999E-01 -2.499999999994E-01
    165 T   6 C    -4.912780720576E-01  2.941395987575E-01  3.221635539118E-01
    166 F   6 C    -8.721927942738E-03 -2.941395987575E-01  3.221635539118E-01
    167 F   6 C    -4.912780720576E-01  2.058604012423E-01  1.778364460869E-01
    168 F   6 C    -8.721927942738E-03 -2.058604012423E-01  1.778364460869E-01
    169 F   6 C     4.912780720576E-01 -2.941395987575E-01 -3.221635539118E-01
    170 F   6 C     8.721927942738E-03  2.941395987575E-01 -3.221635539118E-01
    171 F   6 C     4.912780720576E-01 -2.058604012423E-01 -1.778364460869E-01
    172 F   6 C     8.721927942738E-03  2.058604012423E-01 -1.778364460869E-01
    173 T   6 C    -4.427618647242E-01  2.917922623402E-01  3.239226902392E-01
    174 F   6 C    -5.723813527615E-02 -2.917922623402E-01  3.239226902392E-01
    175 F   6 C    -4.427618647242E-01  2.082077376596E-01  1.760773097595E-01
    176 F   6 C    -5.723813527615E-02 -2.082077376596E-01  1.760773097595E-01
    177 F   6 C     4.427618647242E-01 -2.917922623402E-01 -3.239226902392E-01
    178 F   6 C     5.723813527615E-02  2.917922623402E-01 -3.239226902392E-01
    179 F   6 C     4.427618647242E-01 -2.082077376596E-01 -1.760773097595E-01
    180 F   6 C     5.723813527615E-02  2.082077376596E-01 -1.760773097595E-01
    181 T   6 C    -4.187994727463E-01  2.499999999999E-01  2.499999999994E-01
    182 F   6 C    -8.120052725413E-02 -2.499999999999E-01  2.499999999994E-01
    183 F   6 C     4.187994727463E-01 -2.499999999999E-01 -2.499999999994E-01
    184 F   6 C     8.120052725413E-02  2.499999999999E-01 -2.499999999994E-01
    185 T   1 H     2.019764638511E-01 -4.366822353932E-01  3.274601995375E-01
    186 F   1 H     2.980235361493E-01  4.366822353932E-01  3.274601995375E-01
    187 F   1 H     2.019764638511E-01 -6.331776460658E-02  1.725398004612E-01
    188 F   1 H     2.980235361493E-01  6.331776460658E-02  1.725398004612E-01
    189 F   1 H    -2.019764638511E-01  4.366822353932E-01 -3.274601995375E-01
    190 F   1 H    -2.980235361493E-01 -4.366822353932E-01 -3.274601995375E-01
    191 F   1 H    -2.019764638511E-01  6.331776460658E-02 -1.725398004612E-01
    192 F   1 H    -2.980235361493E-01 -6.331776460658E-02 -1.725398004612E-01
    193 T   1 H     2.626017949783E-01 -4.318522863922E-01 -3.180471742979E-01
    194 F   1 H     2.373982050220E-01  4.318522863922E-01 -3.180471742979E-01
    195 F   1 H     2.626017949783E-01 -6.814771360757E-02 -1.819528257008E-01
    196 F   1 H     2.373982050220E-01  6.814771360757E-02 -1.819528257008E-01
    197 F   1 H    -2.626017949783E-01  4.318522863922E-01  3.180471742979E-01
    198 F   1 H    -2.373982050220E-01 -4.318522863922E-01  3.180471742979E-01
    199 F   1 H    -2.626017949783E-01  6.814771360757E-02  1.819528257008E-01
    200 F   1 H    -2.373982050220E-01 -6.814771360757E-02  1.819528257008E-01
    201 T   1 H     3.110158321981E-01  4.445740226563E-01 -1.797343542875E-01
    202 F   1 H     1.889841678023E-01 -4.445740226563E-01 -1.797343542875E-01
    203 F   1 H     3.110158321981E-01  5.542597734343E-02 -3.202656457112E-01
    204 F   1 H     1.889841678023E-01 -5.542597734343E-02 -3.202656457112E-01
    205 F   1 H    -3.110158321981E-01 -4.445740226563E-01  1.797343542875E-01
    206 F   1 H    -1.889841678023E-01  4.445740226563E-01  1.797343542875E-01
    207 F   1 H    -3.110158321981E-01 -5.542597734343E-02  3.202656457112E-01
    208 F   1 H    -1.889841678023E-01  5.542597734343E-02  3.202656457112E-01
    209 T   1 H     2.809039876595E-01 -4.251998712842E-01  2.337918554658E-01
    210 F   1 H     2.190960123409E-01  4.251998712842E-01  2.337918554658E-01
    211 F   1 H     2.809039876595E-01 -7.480012871559E-02  2.662081445329E-01
    212 F   1 H     2.190960123409E-01  7.480012871559E-02  2.662081445329E-01
    213 F   1 H    -2.809039876595E-01  4.251998712842E-01 -2.337918554658E-01
    214 F   1 H    -2.190960123409E-01 -4.251998712842E-01 -2.337918554658E-01
    215 F   1 H    -2.809039876595E-01  7.480012871559E-02 -2.662081445329E-01
    216 F   1 H    -2.190960123409E-01 -7.480012871559E-02 -2.662081445329E-01
    217 T   1 H     3.320807809235E-01  4.948090051569E-01 -8.208069995143E-02
    218 F   1 H     1.679192190768E-01 -4.948090051569E-01 -8.208069995143E-02
    219 F   1 H     3.320807809235E-01  5.190994843416E-03 -4.179193000473E-01
    220 F   1 H     1.679192190768E-01 -5.190994843416E-03 -4.179193000473E-01
    221 F   1 H    -3.320807809235E-01 -4.948090051569E-01  8.208069995143E-02
    222 F   1 H    -1.679192190768E-01  4.948090051569E-01  8.208069995143E-02
    223 F   1 H    -3.320807809235E-01 -5.190994843416E-03  4.179193000473E-01
    224 F   1 H    -1.679192190768E-01  5.190994843416E-03  4.179193000473E-01
    225 T   1 H     3.507996708491E-01 -4.232761696267E-01  3.690228596721E-01
    226 F   1 H     1.492003291513E-01  4.232761696267E-01  3.690228596721E-01
    227 F   1 H     3.507996708491E-01 -7.672383037306E-02  1.309771403266E-01
    228 F   1 H     1.492003291513E-01  7.672383037306E-02  1.309771403266E-01
    229 F   1 H    -3.507996708491E-01  4.232761696267E-01 -3.690228596721E-01
    230 F   1 H    -1.492003291513E-01 -4.232761696267E-01 -3.690228596721E-01
    231 F   1 H    -3.507996708491E-01  7.672383037306E-02 -1.309771403266E-01
    232 F   1 H    -1.492003291513E-01 -7.672383037306E-02 -1.309771403266E-01
    233 T   1 H     3.870574743345E-01  3.540967151849E-01 -1.448027740316E-01
    234 F   1 H     1.129425256659E-01 -3.540967151849E-01 -1.448027740316E-01
    235 F   1 H     3.870574743345E-01  1.459032848148E-01 -3.551972259671E-01
    236 F   1 H     1.129425256659E-01 -1.459032848148E-01 -3.551972259671E-01
    237 F   1 H    -3.870574743345E-01 -3.540967151849E-01  1.448027740316E-01
    238 F   1 H    -1.129425256659E-01  3.540967151849E-01  1.448027740316E-01
    239 F   1 H    -3.870574743345E-01 -1.459032848148E-01  3.551972259671E-01
    240 F   1 H    -1.129425256659E-01  1.459032848148E-01  3.551972259671E-01
    241 T   1 H     4.392810660051E-01  3.831684516772E-01 -1.423130602437E-01
    242 F   1 H     6.071893399531E-02 -3.831684516772E-01 -1.423130602437E-01
    243 F   1 H     4.392810660051E-01  1.168315483226E-01 -3.576869397550E-01
    244 F   1 H     6.071893399531E-02 -1.168315483226E-01 -3.576869397550E-01
    245 F   1 H    -4.392810660051E-01 -3.831684516772E-01  1.423130602437E-01
    246 F   1 H    -6.071893399531E-02  3.831684516772E-01  1.423130602437E-01
    247 F   1 H    -4.392810660051E-01 -1.168315483226E-01  3.576869397550E-01
    248 F   1 H    -6.071893399531E-02  1.168315483226E-01  3.576869397550E-01
    249 T   1 H     4.508623650001E-01  4.844033639607E-01  6.432958878162E-02
    250 F   1 H     4.913763500031E-02 -4.844033639607E-01  6.432958878162E-02
    251 F   1 H     4.508623650001E-01  1.559663603903E-02  4.356704112171E-01
    252 F   1 H     4.913763500031E-02 -1.559663603903E-02  4.356704112171E-01
    253 F   1 H    -4.508623650001E-01 -4.844033639607E-01 -6.432958878162E-02
    254 F   1 H    -4.913763500031E-02  4.844033639607E-01 -6.432958878162E-02
    255 F   1 H    -4.508623650001E-01 -1.559663603903E-02 -4.356704112171E-01
    256 F   1 H    -4.913763500031E-02  1.559663603903E-02 -4.356704112171E-01
    257 T   1 H     4.466514328934E-01  2.499999999999E-01  2.499999999994E-01
    258 F   1 H     5.334856710701E-02 -2.499999999999E-01  2.499999999994E-01
    259 F   1 H    -4.466514328934E-01 -2.499999999999E-01 -2.499999999994E-01
    260 F   1 H    -5.334856710701E-02  2.499999999999E-01 -2.499999999994E-01
    261 T   1 H     4.833195127755E-01 -3.317347474308E-01 -7.360780502325E-02
    262 F   1 H     1.668048722493E-02  3.317347474308E-01 -7.360780502325E-02
    263 F   1 H     4.833195127755E-01 -1.682652525689E-01 -4.263921949755E-01
    264 F   1 H     1.668048722493E-02  1.682652525689E-01 -4.263921949755E-01
    265 F   1 H    -4.833195127755E-01  3.317347474308E-01  7.360780502325E-02
    266 F   1 H    -1.668048722493E-02 -3.317347474308E-01  7.360780502325E-02
    267 F   1 H    -4.833195127755E-01  1.682652525689E-01  4.263921949755E-01
    268 F   1 H    -1.668048722493E-02 -1.682652525689E-01  4.263921949755E-01
    269 T   1 H     4.867031923449E-01 -3.697247502067E-01  3.164893534927E-01
    270 F   1 H     1.329680765550E-02  3.697247502067E-01  3.164893534927E-01
    271 F   1 H     4.867031923449E-01 -1.302752497930E-01  1.835106465061E-01
    272 F   1 H     1.329680765550E-02  1.302752497930E-01  1.835106465061E-01
    273 F   1 H    -4.867031923449E-01  3.697247502067E-01 -3.164893534927E-01
    274 F   1 H    -1.329680765550E-02 -3.697247502067E-01 -3.164893534927E-01
    275 F   1 H    -4.867031923449E-01  1.302752497930E-01 -1.835106465061E-01
    276 F   1 H    -1.329680765550E-02 -1.302752497930E-01 -1.835106465061E-01
    277 T   1 H     4.973693084479E-01 -2.958293343794E-01  1.398627432405E-01
    278 F   1 H     2.630691551675E-03  2.958293343794E-01  1.398627432405E-01
    279 F   1 H     4.973693084479E-01 -2.041706656203E-01  3.601372567582E-01
    280 F   1 H     2.630691551675E-03  2.041706656203E-01  3.601372567582E-01
    281 F   1 H    -4.973693084479E-01  2.958293343794E-01 -1.398627432405E-01
    282 F   1 H    -2.630691551675E-03 -2.958293343794E-01 -1.398627432405E-01
    283 F   1 H    -4.973693084479E-01  2.041706656203E-01 -3.601372567582E-01
    284 F   1 H    -2.630691551675E-03 -2.041706656203E-01 -3.601372567582E-01
    285 T   1 H    -4.246398328224E-01  3.245868202937E-01  3.833120916516E-01
    286 F   1 H    -7.536016717795E-02 -3.245868202937E-01  3.833120916516E-01
    287 F   1 H    -4.246398328224E-01  1.754131797061E-01  1.166879083471E-01
    288 F   1 H    -7.536016717795E-02 -1.754131797061E-01  1.166879083471E-01
    289 F   1 H     4.246398328224E-01 -3.245868202937E-01 -3.833120916516E-01
    290 F   1 H     7.536016717795E-02  3.245868202937E-01 -3.833120916516E-01
    291 F   1 H     4.246398328224E-01 -1.754131797061E-01 -1.166879083471E-01
    292 F   1 H     7.536016717795E-02  1.754131797061E-01 -1.166879083471E-01
    293 T   1 H    -3.810467418483E-01  2.499999999999E-01  2.499999999994E-01
    294 F   1 H    -1.189532581521E-01 -2.499999999999E-01  2.499999999994E-01
    295 F   1 H     3.810467418483E-01 -2.499999999999E-01 -2.499999999994E-01
    296 F   1 H     1.189532581521E-01  2.499999999999E-01 -2.499999999994E-01
    297 T   1 H     4.567999400843E-01  4.355467614568E-01 -3.395443942454E-01
    298 F   1 H     4.320005991614E-02 -4.355467614568E-01 -3.395443942454E-01
    299 F   1 H     4.567999400843E-01  6.445323854292E-02 -1.604556057533E-01
    300 F   1 H     4.320005991614E-02 -6.445323854292E-02 -1.604556057533E-01
    301 F   1 H    -4.567999400843E-01 -4.355467614568E-01  3.395443942454E-01
    302 F   1 H    -4.320005991614E-02  4.355467614568E-01  3.395443942454E-01
    303 F   1 H    -4.567999400843E-01 -6.445323854292E-02  1.604556057533E-01
    304 F   1 H    -4.320005991614E-02  6.445323854292E-02  1.604556057533E-01
    305 T   8 O     1.458627234235E-01 -4.455262641144E-01  4.783298833678E-01
    306 F   8 O     3.541372765769E-01  4.455262641144E-01  4.783298833678E-01
    307 F   8 O     1.458627234235E-01 -5.447373588533E-02  2.167011663093E-02
    308 F   8 O     3.541372765769E-01  5.447373588533E-02  2.167011663093E-02
    309 F   8 O    -1.458627234235E-01  4.455262641144E-01 -4.783298833678E-01
    310 F   8 O    -3.541372765769E-01 -4.455262641144E-01 -4.783298833678E-01
    311 F   8 O    -1.458627234235E-01  5.447373588533E-02 -2.167011663093E-02
    312 F   8 O    -3.541372765769E-01 -5.447373588533E-02 -2.167011663093E-02
    313 T   8 O     1.697254690232E-01 -4.175415872465E-01 -3.339929975552E-01
    314 F   8 O     3.302745309771E-01  4.175415872465E-01 -3.339929975552E-01
    315 F   8 O     1.697254690232E-01 -8.245841275318E-02 -1.660070024436E-01
    316 F   8 O     3.302745309771E-01  8.245841275318E-02 -1.660070024436E-01
    317 F   8 O    -1.697254690232E-01  4.175415872465E-01  3.339929975552E-01
    318 F   8 O    -3.302745309771E-01 -4.175415872465E-01  3.339929975552E-01
    319 F   8 O    -1.697254690232E-01  8.245841275318E-02  1.660070024436E-01
    320 F   8 O    -3.302745309771E-01 -8.245841275318E-02  1.660070024436E-01
    321 T   8 O     3.363927375001E-01  4.539569642426E-01 -1.212513844350E-01
    322 F   8 O     1.636072625003E-01 -4.539569642426E-01 -1.212513844350E-01
    323 F   8 O     3.363927375001E-01  4.604303575708E-02 -3.787486155637E-01
    324 F   8 O     1.636072625003E-01 -4.604303575708E-02 -3.787486155637E-01
    325 F   8 O    -3.363927375001E-01 -4.539569642426E-01  1.212513844350E-01
    326 F   8 O    -1.636072625003E-01  4.539569642426E-01  1.212513844350E-01
    327 F   8 O    -3.363927375001E-01 -4.604303575708E-02  3.787486155637E-01
    328 F   8 O    -1.636072625003E-01  4.604303575708E-02  3.787486155637E-01
    329 T   8 O     3.513684779753E-01 -4.652749228532E-01 -2.907198576259E-01
    330 F   8 O     1.486315220251E-01  4.652749228532E-01 -2.907198576259E-01
    331 F   8 O     3.513684779753E-01 -3.472507714655E-02 -2.092801423728E-01
    332 F   8 O     1.486315220251E-01  3.472507714655E-02 -2.092801423728E-01
    333 F   8 O    -3.513684779753E-01  4.652749228532E-01  2.907198576259E-01
    334 F   8 O    -1.486315220251E-01 -4.652749228532E-01  2.907198576259E-01
    335 F   8 O    -3.513684779753E-01  3.472507714655E-02  2.092801423728E-01
    336 F   8 O    -1.486315220251E-01 -3.472507714655E-02  2.092801423728E-01
    337 T   8 O     4.096273225255E-01  3.801348834375E-01 -1.878662459585E-01
    338 F   8 O     9.037267747485E-02 -3.801348834375E-01 -1.878662459585E-01
    339 F   8 O     4.096273225255E-01  1.198651165622E-01 -3.121337540403E-01
    340 F   8 O     9.037267747485E-02 -1.198651165622E-01 -3.121337540403E-01
    341 F   8 O    -4.096273225255E-01 -3.801348834375E-01  1.878662459585E-01
    342 F   8 O    -9.037267747485E-02  3.801348834375E-01  1.878662459585E-01
    343 F   8 O    -4.096273225255E-01 -1.198651165622E-01  3.121337540403E-01
    344 F   8 O    -9.037267747485E-02  1.198651165622E-01  3.121337540403E-01
    345 T   8 O     3.930804262794E-01 -4.255977082698E-01 -4.458552653587E-01
    346 F   8 O     1.069195737210E-01  4.255977082698E-01 -4.458552653587E-01
    347 F   8 O     3.930804262794E-01 -7.440229172996E-02 -5.414473464003E-02
    348 F   8 O     1.069195737210E-01  7.440229172996E-02 -5.414473464003E-02
    349 F   8 O    -3.930804262794E-01  4.255977082698E-01  4.458552653587E-01
    350 F   8 O    -1.069195737210E-01 -4.255977082698E-01  4.458552653587E-01
    351 F   8 O    -3.930804262794E-01  7.440229172996E-02  5.414473464003E-02
    352 F   8 O    -1.069195737210E-01 -7.440229172996E-02  5.414473464003E-02
    353 T   8 O     4.289608322269E-01  4.966325280167E-01 -1.322381757147E-01
    354 F   8 O     7.103916777346E-02 -4.966325280167E-01 -1.322381757147E-01
    355 F   8 O     4.289608322269E-01  3.367471983027E-03 -3.677618242840E-01
    356 F   8 O     7.103916777346E-02 -3.367471983027E-03 -3.677618242840E-01
    357 F   8 O    -4.289608322269E-01 -4.966325280167E-01  1.322381757147E-01
    358 F   8 O    -7.103916777346E-02  4.966325280167E-01  1.322381757147E-01
    359 F   8 O    -4.289608322269E-01 -3.367471983027E-03  3.677618242840E-01
    360 F   8 O    -7.103916777346E-02  3.367471983027E-03  3.677618242840E-01
    361 T   8 O     4.152799537002E-01  4.906438891861E-01  2.974112920948E-01
    362 F   8 O     8.472004630022E-02 -4.906438891861E-01  2.974112920948E-01
    363 F   8 O     4.152799537002E-01  9.356110813660E-03  2.025887079039E-01
    364 F   8 O     8.472004630022E-02 -9.356110813660E-03  2.025887079039E-01
    365 F   8 O    -4.152799537002E-01 -4.906438891861E-01 -2.974112920948E-01
    366 F   8 O    -8.472004630022E-02  4.906438891861E-01 -2.974112920948E-01
    367 F   8 O    -4.152799537002E-01 -9.356110813660E-03 -2.025887079039E-01
    368 F   8 O    -8.472004630022E-02  9.356110813660E-03 -2.025887079039E-01
    369 T   8 O     4.305763894561E-01  4.611615617272E-01 -3.683025100303E-01
    370 F   8 O     6.942361054427E-02 -4.611615617272E-01 -3.683025100303E-01
    371 F   8 O     4.305763894561E-01  3.883843827248E-02 -1.316974899685E-01
    372 F   8 O     6.942361054427E-02 -3.883843827248E-02 -1.316974899685E-01
    373 F   8 O    -4.305763894561E-01 -4.611615617272E-01  3.683025100303E-01
    374 F   8 O    -6.942361054427E-02  4.611615617272E-01  3.683025100303E-01
    375 F   8 O    -4.305763894561E-01 -3.883843827248E-02  1.316974899685E-01
    376 F   8 O    -6.942361054427E-02  3.883843827248E-02  1.316974899685E-01
    377 T   8 O     4.449357047952E-01  3.592013925212E-01  3.898546128670E-01
    378 F   8 O     5.506429520518E-02 -3.592013925212E-01  3.898546128670E-01
    379 F   8 O     4.449357047952E-01  1.407986074785E-01  1.101453871317E-01
    380 F   8 O     5.506429520518E-02 -1.407986074785E-01  1.101453871317E-01
    381 F   8 O    -4.449357047952E-01 -3.592013925212E-01 -3.898546128670E-01
    382 F   8 O    -5.506429520518E-02  3.592013925212E-01 -3.898546128670E-01
    383 F   8 O    -4.449357047952E-01 -1.407986074785E-01 -1.101453871317E-01
    384 F   8 O    -5.506429520518E-02  1.407986074785E-01 -1.101453871317E-01
    385 T   8 O     4.596545866883E-01 -4.193891669725E-01 -2.310106060460E-01
    386 F   8 O     4.034541331209E-02  4.193891669725E-01 -2.310106060460E-01
    387 F   8 O     4.596545866883E-01 -8.061083302722E-02 -2.689893939527E-01
    388 F   8 O     4.034541331209E-02  8.061083302722E-02 -2.689893939527E-01
    389 F   8 O    -4.596545866883E-01  4.193891669725E-01  2.310106060460E-01
    390 F   8 O    -4.034541331209E-02 -4.193891669725E-01  2.310106060460E-01
    391 F   8 O    -4.596545866883E-01  8.061083302722E-02  2.689893939527E-01
    392 F   8 O    -4.034541331209E-02 -8.061083302722E-02  2.689893939527E-01
    393 T   8 O     4.821500662382E-01  4.897541776912E-01  3.897820231353E-01
    394 F   8 O     1.784993376227E-02 -4.897541776912E-01  3.897820231353E-01
    395 F   8 O     4.821500662382E-01  1.024582230913E-02  1.102179768635E-01
    396 F   8 O     1.784993376227E-02 -1.024582230913E-02  1.102179768635E-01
    397 F   8 O    -4.821500662382E-01 -4.897541776912E-01 -3.897820231353E-01
    398 F   8 O    -1.784993376227E-02  4.897541776912E-01 -3.897820231353E-01
    399 F   8 O    -4.821500662382E-01 -1.024582230913E-02 -1.102179768635E-01
    400 F   8 O    -1.784993376227E-02  1.024582230913E-02 -1.102179768635E-01
    401 T   8 O     4.836672098894E-01 -3.795394168914E-01 -4.631459459985E-01
    402 F   8 O     1.633279011099E-02  3.795394168914E-01 -4.631459459985E-01
    403 F   8 O     4.836672098894E-01 -1.204605831084E-01 -3.685405400035E-02
    404 F   8 O     1.633279011099E-02  1.204605831084E-01 -3.685405400035E-02
    405 F   8 O    -4.836672098894E-01  3.795394168914E-01  4.631459459985E-01
    406 F   8 O    -1.633279011099E-02 -3.795394168914E-01  4.631459459985E-01
    407 F   8 O    -4.836672098894E-01  1.204605831084E-01  3.685405400035E-02
    408 F   8 O    -1.633279011099E-02 -1.204605831084E-01  3.685405400035E-02

 T = ATOM BELONGING TO THE ASYMMETRIC UNIT
 *******************************************************************************
 * GEOMETRY EDITING - INPUT COORDINATES ARE GIVEN IN ANGSTROM         
 *******************************************************************************

 GEOMETRY NOW FULLY CONSISTENT WITH THE GROUP
 INFORMATION **** NEW DEFAULT **** FINALRUN 4 FOR GEOMETRY OPTIMIZATIONS
 INFORMATION **** NEW DEFAULT **** OPTGEOM OPTIMIZES BOTH ATOMIC COORDINATES AND CELL PARAMETERS
 INFORMATION **** NEW DEFAULT **** TOL. ON ATOMIC DISP TO REDEFINE REF. GEOMETRY: 0.8 Angs
 INFORMATION **** NEW DEFAULT **** N POINTS TO REDEFINE REF. GEOMETRY: N OF OPT DEGS OF FREEDOM
 INFORMATION **** NEW DEFAULT **** TOL. ON ENERGY TO REDEFINE REF. GEOMETRY: 10**-3*(5*N. ATOMS)
 INFORMATION **** FULLOPTG **** FULL OPTIMIZATION (ATOMS AND CELL PARAMETERS)
 INFORMATION **** MAXCYCLE ****   MAXIMUM NUMBER OF OPTIMIZATION CYCLES         200

 IMPORTANT INFORMATION:
 THE COORDINATE SYSTEM ADOPTED IN THE OPTIMIZATION IS NOT IN
 GENERAL HOMOGENEOUS UNITS. FOR THIS REASON THE GRADIENT AND 
 HESSIAN MATRIX IN TERMS OF THIS SYSTEM ARE GIVEN WITHOUT
 UNITS. FOR MORE DETAILS SEE THE MANUAL.

 *******************************************************************************
 COMBINED CELL/ATOM OPTIMIZATION CONTROL

 INITIAL TRUST RADIUS         0.50000 MAXIMUM TRUST RADIUS               4.00000
 MAXIMUM GRADIENT COMPONENT   0.00045 MAXIMUM DISPLACEMENT COMPONENT     0.00180
 R.M.S. OF GRADIENT COMPONENT 0.00030 R.M.S. OF DISPLACEMENT COMPONENTS  0.00120
 THRESHOLD ON ENERGY CHANGE 0.100E-06 EXTRAPOLATING POLYNOMIAL ORDER           2
 MAXIMUM ALLOWED NUMBER OF STEPS  200 SORTING OF ENERGY POINTS:               NO
 ANALYTICAL  GRADIENT                 HESSIAN UPDATING                      BFGS
 STEP SIZE NUMERICAL GRADIENT 0.00100
 INITIAL HESSIAN MATRIX: SCHLEGEL MODEL 2
 *******************************************************************************


 GCALCO - MAX INDICES DIRECT LATTICE VECTOR     9    13    25
 NO.OF VECTORS CREATED 6999 STARS 1063 RMAX   418.68545 BOHR

 GEOMETRY FOR WAVE FUNCTION - DIMENSIONALITY OF THE SYSTEM    3
 (NON PERIODIC DIRECTION: LATTICE PARAMETER FORMALLY SET TO 500)
 *******************************************************************************
 LATTICE PARAMETERS (ANGSTROMS AND DEGREES) - BOHR = 0.5291772083 ANGSTROM
 PRIMITIVE CELL - CENTRING CODE 1/0 VOLUME=  6525.200089 - DENSITY  1.303 g/cm^3
         A              B              C           ALPHA      BETA       GAMMA 
    28.41595169    20.99743774    10.93617184    90.000000  90.000000  90.000000
 *******************************************************************************
 ATOMS IN THE ASYMMETRIC UNIT   53 - ATOMS IN THE UNIT CELL:  408
     ATOM                 X/A                 Y/B                 Z/C    
 *******************************************************************************
      1 T  27 CO    3.842963993802E-01  4.599476062414E-01 -2.450381443040E-01
      2 F  27 CO    1.157036006216E-01 -4.599476062414E-01 -2.450381443040E-01
      3 F  27 CO    3.842963993802E-01  4.005239375627E-02 -2.549618556969E-01
      4 F  27 CO    1.157036006216E-01 -4.005239376103E-02 -2.549618556969E-01
      5 F  27 CO   -3.842963993802E-01 -4.599476062414E-01  2.450381443040E-01
      6 F  27 CO   -1.157036006181E-01  4.599476062414E-01  2.450381443040E-01
      7 F  27 CO   -3.842963993802E-01 -4.005239376103E-02  2.549618556951E-01
      8 F  27 CO   -1.157036006181E-01  4.005239375627E-02  2.549618556951E-01
      9 T  27 CO    4.208188107662E-01  4.540341140989E-01  4.597397579631E-01
     10 F  27 CO    7.918118923556E-02 -4.540341140989E-01  4.597397579631E-01
     11 F  27 CO    4.208188107662E-01  4.596588589873E-02  4.026024203603E-02
     12 F  27 CO    7.918118923556E-02 -4.596588590349E-02  4.026024203603E-02
     13 F  27 CO   -4.208188107662E-01 -4.540341140989E-01 -4.597397579631E-01
     14 F  27 CO   -7.918118923204E-02  4.540341140989E-01 -4.597397579631E-01
     15 F  27 CO   -4.208188107662E-01 -4.596588590349E-02 -4.026024203786E-02
     16 F  27 CO   -7.918118923204E-02  4.596588589873E-02 -4.026024203786E-02
     17 T  27 CO    4.537340026852E-01 -4.561661728949E-01 -4.022407348897E-01
     18 F  27 CO    4.626599731656E-02  4.561661728949E-01 -4.022407348897E-01
     19 F  27 CO    4.537340026852E-01 -4.383382710750E-02 -9.775926511119E-02
     20 F  27 CO    4.626599731656E-02  4.383382710274E-02 -9.775926511119E-02
     21 F  27 CO   -4.537340026852E-01  4.561661728949E-01  4.022407348897E-01
     22 F  27 CO   -4.626599731304E-02 -4.561661728949E-01  4.022407348897E-01
     23 F  27 CO   -4.537340026852E-01  4.383382710274E-02  9.775926510936E-02
     24 F  27 CO   -4.626599731304E-02 -4.383382710750E-02  9.775926510936E-02
     25 T   6 C     1.777354112761E-01 -4.315623190412E-01 -4.462096659728E-01
     26 F   6 C     3.222645887257E-01  4.315623190412E-01 -4.462096659728E-01
     27 F   6 C     1.777354112761E-01 -6.843768096119E-02 -5.379033402809E-02
     28 F   6 C     3.222645887257E-01  6.843768095643E-02 -5.379033402809E-02
     29 F   6 C    -1.777354112761E-01  4.315623190412E-01  4.462096659728E-01
     30 F   6 C    -3.222645887222E-01 -4.315623190412E-01  4.462096659728E-01
     31 F   6 C    -1.777354112761E-01  6.843768095643E-02  5.379033402626E-02
     32 F   6 C    -3.222645887222E-01 -6.843768096119E-02  5.379033402626E-02
     33 T   6 C     2.267001650476E-01 -4.321782826595E-01 -4.911233228244E-01
     34 F   6 C     2.732998349541E-01  4.321782826595E-01 -4.911233228244E-01
     35 F   6 C     2.267001650476E-01 -6.782171734293E-02 -8.876677176509E-03
     36 F   6 C     2.732998349541E-01  6.782171733817E-02 -8.876677176509E-03
     37 F   6 C    -2.267001650476E-01  4.321782826595E-01  4.911233228244E-01
     38 F   6 C    -2.732998349506E-01 -4.321782826595E-01  4.911233228244E-01
     39 F   6 C    -2.267001650476E-01  6.782171733817E-02  8.876677174680E-03
     40 F   6 C    -2.732998349506E-01 -6.782171734293E-02  8.876677174680E-03
     41 T   6 C     2.329683935391E-01 -4.330253443124E-01  3.830587086778E-01
     42 F   6 C     2.670316064627E-01  4.330253443124E-01  3.830587086778E-01
     43 F   6 C     2.329683935391E-01 -6.697465568999E-02  1.169412913213E-01
     44 F   6 C     2.670316064627E-01  6.697465568523E-02  1.169412913213E-01
     45 F   6 C    -2.329683935391E-01  4.330253443124E-01 -3.830587086778E-01
     46 F   6 C    -2.670316064592E-01 -4.330253443124E-01 -3.830587086778E-01
     47 F   6 C    -2.329683935391E-01  6.697465568523E-02 -1.169412913231E-01
     48 F   6 C    -2.670316064592E-01 -6.697465568999E-02 -1.169412913231E-01
     49 T   6 C     2.662967126194E-01 -4.315393988681E-01 -4.164831178661E-01
     50 F   6 C     2.337032873823E-01  4.315393988681E-01 -4.164831178661E-01
     51 F   6 C     2.662967126194E-01 -6.846060113426E-02 -8.351688213479E-02
     52 F   6 C     2.337032873823E-01  6.846060112950E-02 -8.351688213479E-02
     53 F   6 C    -2.662967126194E-01  4.315393988681E-01  4.164831178661E-01
     54 F   6 C    -2.337032873788E-01 -4.315393988681E-01  4.164831178661E-01
     55 F   6 C    -2.662967126194E-01  6.846060112950E-02  8.351688213296E-02
     56 F   6 C    -2.337032873788E-01 -6.846060113426E-02  8.351688213296E-02
     57 T   6 C     2.770554419218E-01 -4.280731235599E-01  3.321630993507E-01
     58 F   6 C     2.229445580800E-01  4.280731235599E-01  3.321630993507E-01
     59 F   6 C     2.770554419218E-01 -7.192687644244E-02  1.678369006483E-01
     60 F   6 C     2.229445580800E-01  7.192687643768E-02  1.678369006483E-01
     61 F   6 C    -2.770554419218E-01  4.280731235599E-01 -3.321630993507E-01
     62 F   6 C    -2.229445580764E-01 -4.280731235599E-01 -3.321630993507E-01
     63 F   6 C    -2.770554419218E-01  7.192687643768E-02 -1.678369006502E-01
     64 F   6 C    -2.229445580764E-01 -7.192687644244E-02 -1.678369006502E-01
     65 T   6 C     3.109399122592E-01 -4.294439315341E-01 -4.670272002227E-01
     66 F   6 C     1.890600877426E-01  4.294439315341E-01 -4.670272002227E-01
     67 F   6 C     3.109399122592E-01 -7.055606846830E-02 -3.297279977825E-02
     68 F   6 C     1.890600877426E-01  7.055606846354E-02 -3.297279977825E-02
     69 F   6 C    -3.109399122592E-01  4.294439315341E-01  4.670272002227E-01
     70 F   6 C    -1.890600877391E-01 -4.294439315341E-01  4.670272002227E-01
     71 F   6 C    -3.109399122592E-01  7.055606846354E-02  3.297279977642E-02
     72 F   6 C    -1.890600877391E-01 -7.055606846830E-02  3.297279977642E-02
     73 T   6 C     3.159283736084E-01 -4.259133924350E-01  4.064187787339E-01
     74 F   6 C     1.840716263933E-01  4.259133924350E-01  4.064187787339E-01
[...]
-rw-rw-r-- 1 mducamp mducamp         0 Mar 31 10:49 fort.28.pe04
-rw-rw-r-- 1 mducamp mducamp         0 Mar 31 10:49 fort.28.pe05
-rw-rw-r-- 1 mducamp mducamp         0 Mar 31 10:49 fort.28.pe06
-rw-rw-r-- 1 mducamp mducamp         0 Mar 31 10:49 fort.28.pe07
-rw-rw-r-- 1 mducamp mducamp         0 Mar 31 10:49 fort.28.pe08
-rw-rw-r-- 1 mducamp mducamp         0 Mar 31 10:49 fort.28.pe09
-rw-rw-r-- 1 mducamp mducamp         0 Mar 31 10:49 fort.28.pe10
-rw-rw-r-- 1 mducamp mducamp         0 Mar 31 10:49 fort.28.pe11
-rw-rw-r-- 1 mducamp mducamp         0 Mar 31 10:49 fort.28.pe12
-rw-rw-r-- 1 mducamp mducamp         0 Mar 31 10:49 fort.28.pe13
-rw-rw-r-- 1 mducamp mducamp         0 Mar 31 10:49 fort.28.pe14
-rw-rw-r-- 1 mducamp mducamp         0 Mar 31 10:49 fort.28.pe15
-rw-rw-r-- 1 mducamp mducamp         0 Mar 31 10:49 fort.29.pe00
-rw-rw-r-- 1 mducamp mducamp         0 Mar 31 10:49 fort.29.pe01
-rw-rw-r-- 1 mducamp mducamp         0 Mar 31 10:49 fort.29.pe02
-rw-rw-r-- 1 mducamp mducamp         0 Mar 31 10:49 fort.29.pe03
-rw-rw-r-- 1 mducamp mducamp         0 Mar 31 10:49 fort.29.pe04
-rw-rw-r-- 1 mducamp mducamp         0 Mar 31 10:49 fort.29.pe05
-rw-rw-r-- 1 mducamp mducamp         0 Mar 31 10:49 fort.29.pe06
-rw-rw-r-- 1 mducamp mducamp         0 Mar 31 10:49 fort.29.pe07
-rw-rw-r-- 1 mducamp mducamp         0 Mar 31 10:49 fort.29.pe08
-rw-rw-r-- 1 mducamp mducamp         0 Mar 31 10:49 fort.29.pe09
-rw-rw-r-- 1 mducamp mducamp         0 Mar 31 10:49 fort.29.pe10
-rw-rw-r-- 1 mducamp mducamp         0 Mar 31 10:49 fort.29.pe11
-rw-rw-r-- 1 mducamp mducamp         0 Mar 31 10:49 fort.29.pe12
-rw-rw-r-- 1 mducamp mducamp         0 Mar 31 10:49 fort.29.pe13
-rw-rw-r-- 1 mducamp mducamp         0 Mar 31 10:49 fort.29.pe14
-rw-rw-r-- 1 mducamp mducamp         0 Mar 31 10:49 fort.29.pe15
-rw-rw-r-- 1 mducamp mducamp   1702831 Apr  1 05:25 fort.33
-rw-rw-r-- 1 mducamp mducamp     29138 Apr  1 05:25 fort.34
-rw-rw-r-- 1 mducamp mducamp 196871960 Apr  1 05:19 fort.38.pe00
-rw-rw-r-- 1 mducamp mducamp 196871960 Apr  1 05:19 fort.38.pe01
-rw-rw-r-- 1 mducamp mducamp 196871960 Apr  1 05:19 fort.38.pe02
-rw-rw-r-- 1 mducamp mducamp 196871960 Apr  1 05:19 fort.38.pe03
-rw-rw-r-- 1 mducamp mducamp 196871960 Apr  1 05:19 fort.38.pe04
-rw-rw-r-- 1 mducamp mducamp 196871960 Apr  1 05:19 fort.38.pe05
-rw-rw-r-- 1 mducamp mducamp 196871960 Apr  1 05:19 fort.38.pe06
-rw-rw-r-- 1 mducamp mducamp 196871960 Apr  1 05:19 fort.38.pe07
-rw-rw-r-- 1 mducamp mducamp 196871960 Apr  1 05:19 fort.38.pe08
-rw-rw-r-- 1 mducamp mducamp 196871960 Apr  1 05:19 fort.38.pe09
-rw-rw-r-- 1 mducamp mducamp 196871960 Apr  1 05:19 fort.38.pe10
-rw-rw-r-- 1 mducamp mducamp 196871960 Apr  1 05:19 fort.38.pe11
-rw-rw-r-- 1 mducamp mducamp 196871960 Apr  1 05:19 fort.38.pe12
-rw-rw-r-- 1 mducamp mducamp 196871960 Apr  1 05:19 fort.38.pe13
-rw-rw-r-- 1 mducamp mducamp 196871960 Apr  1 05:19 fort.38.pe14
-rw-rw-r-- 1 mducamp mducamp 196871960 Apr  1 05:19 fort.38.pe15
-rw-rw-r-- 1 mducamp mducamp         0 Mar 31 10:49 fort.3.pe00
-rw-rw-r-- 1 mducamp mducamp         0 Mar 31 10:49 fort.3.pe01
-rw-rw-r-- 1 mducamp mducamp         0 Mar 31 10:49 fort.3.pe02
-rw-rw-r-- 1 mducamp mducamp         0 Mar 31 10:49 fort.3.pe03
-rw-rw-r-- 1 mducamp mducamp         0 Mar 31 10:49 fort.3.pe04
-rw-rw-r-- 1 mducamp mducamp         0 Mar 31 10:49 fort.3.pe05
-rw-rw-r-- 1 mducamp mducamp         0 Mar 31 10:49 fort.3.pe06
-rw-rw-r-- 1 mducamp mducamp         0 Mar 31 10:49 fort.3.pe07
-rw-rw-r-- 1 mducamp mducamp         0 Mar 31 10:49 fort.3.pe08
-rw-rw-r-- 1 mducamp mducamp         0 Mar 31 10:49 fort.3.pe09
-rw-rw-r-- 1 mducamp mducamp         0 Mar 31 10:49 fort.3.pe10
-rw-rw-r-- 1 mducamp mducamp         0 Mar 31 10:49 fort.3.pe11
-rw-rw-r-- 1 mducamp mducamp         0 Mar 31 10:49 fort.3.pe12
-rw-rw-r-- 1 mducamp mducamp         0 Mar 31 10:49 fort.3.pe13
-rw-rw-r-- 1 mducamp mducamp         0 Mar 31 10:49 fort.3.pe14
-rw-rw-r-- 1 mducamp mducamp         0 Mar 31 10:49 fort.3.pe15
-rw-rw-r-- 1 mducamp mducamp  98298048 Apr  1 05:19 fort.40.pe00
-rw-rw-r-- 1 mducamp mducamp  98298048 Apr  1 05:19 fort.40.pe01
-rw-rw-r-- 1 mducamp mducamp  98298048 Apr  1 05:19 fort.40.pe02
-rw-rw-r-- 1 mducamp mducamp  98298048 Apr  1 05:19 fort.40.pe03
-rw-rw-r-- 1 mducamp mducamp  98298048 Apr  1 05:19 fort.40.pe04
-rw-rw-r-- 1 mducamp mducamp  98298048 Apr  1 05:19 fort.40.pe05
-rw-rw-r-- 1 mducamp mducamp  98298048 Apr  1 05:19 fort.40.pe06
-rw-rw-r-- 1 mducamp mducamp  98298048 Apr  1 05:19 fort.40.pe07
-rw-rw-r-- 1 mducamp mducamp  98298048 Apr  1 05:19 fort.40.pe08
-rw-rw-r-- 1 mducamp mducamp  98298048 Apr  1 05:19 fort.40.pe09
-rw-rw-r-- 1 mducamp mducamp  98298048 Apr  1 05:19 fort.40.pe10
-rw-rw-r-- 1 mducamp mducamp  98298048 Apr  1 05:19 fort.40.pe11
-rw-rw-r-- 1 mducamp mducamp  98298048 Apr  1 05:19 fort.40.pe12
-rw-rw-r-- 1 mducamp mducamp  98298048 Apr  1 05:19 fort.40.pe13
-rw-rw-r-- 1 mducamp mducamp  98298048 Apr  1 05:19 fort.40.pe14
-rw-rw-r-- 1 mducamp mducamp  98298048 Apr  1 05:19 fort.40.pe15
-rw-rw-r-- 1 mducamp mducamp         0 Mar 31 10:49 fort.61.pe00
-rw-rw-r-- 1 mducamp mducamp         0 Mar 31 10:49 fort.61.pe01
-rw-rw-r-- 1 mducamp mducamp         0 Mar 31 10:49 fort.61.pe02
-rw-rw-r-- 1 mducamp mducamp         0 Mar 31 10:49 fort.61.pe03
-rw-rw-r-- 1 mducamp mducamp         0 Mar 31 10:49 fort.61.pe04
-rw-rw-r-- 1 mducamp mducamp         0 Mar 31 10:49 fort.61.pe05
-rw-rw-r-- 1 mducamp mducamp         0 Mar 31 10:49 fort.61.pe06
-rw-rw-r-- 1 mducamp mducamp         0 Mar 31 10:49 fort.61.pe07
-rw-rw-r-- 1 mducamp mducamp         0 Mar 31 10:49 fort.61.pe08
-rw-rw-r-- 1 mducamp mducamp         0 Mar 31 10:49 fort.61.pe09
-rw-rw-r-- 1 mducamp mducamp         0 Mar 31 10:49 fort.61.pe10
-rw-rw-r-- 1 mducamp mducamp         0 Mar 31 10:49 fort.61.pe11
-rw-rw-r-- 1 mducamp mducamp         0 Mar 31 10:49 fort.61.pe12
-rw-rw-r-- 1 mducamp mducamp         0 Mar 31 10:49 fort.61.pe13
-rw-rw-r-- 1 mducamp mducamp         0 Mar 31 10:49 fort.61.pe14
-rw-rw-r-- 1 mducamp mducamp         0 Mar 31 10:49 fort.61.pe15
-rw-rw-r-- 1 mducamp mducamp         0 Mar 31 10:49 fort.62.pe00
-rw-rw-r-- 1 mducamp mducamp         0 Mar 31 10:49 fort.62.pe01
-rw-rw-r-- 1 mducamp mducamp         0 Mar 31 10:49 fort.62.pe02
-rw-rw-r-- 1 mducamp mducamp         0 Mar 31 10:49 fort.62.pe03
-rw-rw-r-- 1 mducamp mducamp         0 Mar 31 10:49 fort.62.pe04
-rw-rw-r-- 1 mducamp mducamp         0 Mar 31 10:49 fort.62.pe05
-rw-rw-r-- 1 mducamp mducamp         0 Mar 31 10:49 fort.62.pe06
-rw-rw-r-- 1 mducamp mducamp         0 Mar 31 10:49 fort.62.pe07
-rw-rw-r-- 1 mducamp mducamp         0 Mar 31 10:49 fort.62.pe08
-rw-rw-r-- 1 mducamp mducamp         0 Mar 31 10:49 fort.62.pe09
-rw-rw-r-- 1 mducamp mducamp         0 Mar 31 10:49 fort.62.pe10
-rw-rw-r-- 1 mducamp mducamp         0 Mar 31 10:49 fort.62.pe11
-rw-rw-r-- 1 mducamp mducamp         0 Mar 31 10:49 fort.62.pe12
-rw-rw-r-- 1 mducamp mducamp         0 Mar 31 10:49 fort.62.pe13
-rw-rw-r-- 1 mducamp mducamp         0 Mar 31 10:49 fort.62.pe14
-rw-rw-r-- 1 mducamp mducamp         0 Mar 31 10:49 fort.62.pe15
-rw-rw-r-- 1 mducamp mducamp         0 Mar 31 10:49 fort.82.pe00
-rw-rw-r-- 1 mducamp mducamp         0 Mar 31 10:49 fort.82.pe01
-rw-rw-r-- 1 mducamp mducamp         0 Mar 31 10:49 fort.82.pe02
-rw-rw-r-- 1 mducamp mducamp         0 Mar 31 10:49 fort.82.pe03
-rw-rw-r-- 1 mducamp mducamp         0 Mar 31 10:49 fort.82.pe04
-rw-rw-r-- 1 mducamp mducamp         0 Mar 31 10:49 fort.82.pe05
-rw-rw-r-- 1 mducamp mducamp         0 Mar 31 10:49 fort.82.pe06
-rw-rw-r-- 1 mducamp mducamp         0 Mar 31 10:49 fort.82.pe07
-rw-rw-r-- 1 mducamp mducamp         0 Mar 31 10:49 fort.82.pe08
-rw-rw-r-- 1 mducamp mducamp         0 Mar 31 10:49 fort.82.pe09
-rw-rw-r-- 1 mducamp mducamp         0 Mar 31 10:49 fort.82.pe10
-rw-rw-r-- 1 mducamp mducamp         0 Mar 31 10:49 fort.82.pe11
-rw-rw-r-- 1 mducamp mducamp         0 Mar 31 10:49 fort.82.pe12
-rw-rw-r-- 1 mducamp mducamp         0 Mar 31 10:49 fort.82.pe13
-rw-rw-r-- 1 mducamp mducamp         0 Mar 31 10:49 fort.82.pe14
-rw-rw-r-- 1 mducamp mducamp         0 Mar 31 10:49 fort.82.pe15
-rw-rw-r-- 1 mducamp mducamp         0 Mar 31 10:49 fort.83.pe00
-rw-rw-r-- 1 mducamp mducamp         0 Mar 31 10:49 fort.83.pe01
-rw-rw-r-- 1 mducamp mducamp         0 Mar 31 10:49 fort.83.pe02
-rw-rw-r-- 1 mducamp mducamp         0 Mar 31 10:49 fort.83.pe03
-rw-rw-r-- 1 mducamp mducamp         0 Mar 31 10:49 fort.83.pe04
-rw-rw-r-- 1 mducamp mducamp         0 Mar 31 10:49 fort.83.pe05
-rw-rw-r-- 1 mducamp mducamp         0 Mar 31 10:49 fort.83.pe06
-rw-rw-r-- 1 mducamp mducamp         0 Mar 31 10:49 fort.83.pe07
-rw-rw-r-- 1 mducamp mducamp         0 Mar 31 10:49 fort.83.pe08
-rw-rw-r-- 1 mducamp mducamp         0 Mar 31 10:49 fort.83.pe09
-rw-rw-r-- 1 mducamp mducamp         0 Mar 31 10:49 fort.83.pe10
-rw-rw-r-- 1 mducamp mducamp         0 Mar 31 10:49 fort.83.pe11
-rw-rw-r-- 1 mducamp mducamp         0 Mar 31 10:49 fort.83.pe12
-rw-rw-r-- 1 mducamp mducamp         0 Mar 31 10:49 fort.83.pe13
-rw-rw-r-- 1 mducamp mducamp         0 Mar 31 10:49 fort.83.pe14
-rw-rw-r-- 1 mducamp mducamp         0 Mar 31 10:49 fort.83.pe15
-rw-rw-r-- 1 mducamp mducamp         0 Mar 31 10:49 fort.8.pe00
-rw-rw-r-- 1 mducamp mducamp         0 Mar 31 10:49 fort.8.pe01
-rw-rw-r-- 1 mducamp mducamp         0 Mar 31 10:49 fort.8.pe02
-rw-rw-r-- 1 mducamp mducamp         0 Mar 31 10:49 fort.8.pe03
-rw-rw-r-- 1 mducamp mducamp         0 Mar 31 10:49 fort.8.pe04
-rw-rw-r-- 1 mducamp mducamp         0 Mar 31 10:49 fort.8.pe05
-rw-rw-r-- 1 mducamp mducamp         0 Mar 31 10:49 fort.8.pe06
-rw-rw-r-- 1 mducamp mducamp         0 Mar 31 10:49 fort.8.pe07
-rw-rw-r-- 1 mducamp mducamp         0 Mar 31 10:49 fort.8.pe08
-rw-rw-r-- 1 mducamp mducamp         0 Mar 31 10:49 fort.8.pe09
-rw-rw-r-- 1 mducamp mducamp         0 Mar 31 10:49 fort.8.pe10
-rw-rw-r-- 1 mducamp mducamp         0 Mar 31 10:49 fort.8.pe11
-rw-rw-r-- 1 mducamp mducamp         0 Mar 31 10:49 fort.8.pe12
-rw-rw-r-- 1 mducamp mducamp         0 Mar 31 10:49 fort.8.pe13
-rw-rw-r-- 1 mducamp mducamp         0 Mar 31 10:49 fort.8.pe14
-rw-rw-r-- 1 mducamp mducamp         0 Mar 31 10:49 fort.8.pe15
-rw-rw-r-- 1 mducamp mducamp  21008764 Apr  1 05:25 fort.9
-rw-rw-r-- 1 mducamp mducamp   3424952 Apr  1 05:17 fort.95.pe00
-rw-rw-r-- 1 mducamp mducamp   3424952 Apr  1 05:17 fort.95.pe01
-rw-rw-r-- 1 mducamp mducamp   3424952 Apr  1 05:17 fort.95.pe02
-rw-rw-r-- 1 mducamp mducamp   3424952 Apr  1 05:17 fort.95.pe03
-rw-rw-r-- 1 mducamp mducamp   3424952 Apr  1 05:17 fort.95.pe04
-rw-rw-r-- 1 mducamp mducamp   3424952 Apr  1 05:17 fort.95.pe05
-rw-rw-r-- 1 mducamp mducamp   3424952 Apr  1 05:17 fort.95.pe06
-rw-rw-r-- 1 mducamp mducamp   3424952 Apr  1 05:17 fort.95.pe07
-rw-rw-r-- 1 mducamp mducamp   3424952 Apr  1 05:17 fort.95.pe08
-rw-rw-r-- 1 mducamp mducamp   3424952 Apr  1 05:17 fort.95.pe09
-rw-rw-r-- 1 mducamp mducamp   3424952 Apr  1 05:17 fort.95.pe10
-rw-rw-r-- 1 mducamp mducamp   3424952 Apr  1 05:17 fort.95.pe11
-rw-rw-r-- 1 mducamp mducamp   3424952 Apr  1 05:17 fort.95.pe12
-rw-rw-r-- 1 mducamp mducamp   3424952 Apr  1 05:17 fort.95.pe13
-rw-rw-r-- 1 mducamp mducamp   3424952 Apr  1 05:17 fort.95.pe14
-rw-rw-r-- 1 mducamp mducamp   3424952 Apr  1 05:17 fort.95.pe15
-rw-rw-r-- 1 mducamp mducamp  53685824 Apr  1 05:25 fort.98
-rw-rw-r-- 1 mducamp mducamp    503965 Apr  1 05:25 HESSOPT.DAT
-rw-r--r-- 1 mducamp mducamp       158 Mar 31 10:49 INPUT
-rw-rw-r-- 1 mducamp mducamp     29138 Mar 31 11:26 optc001
-rw-rw-r-- 1 mducamp mducamp     29138 Mar 31 11:50 optc002
-rw-rw-r-- 1 mducamp mducamp     29138 Mar 31 12:09 optc003
-rw-rw-r-- 1 mducamp mducamp     29138 Mar 31 12:27 optc004
-rw-rw-r-- 1 mducamp mducamp     29138 Mar 31 12:47 optc005
-rw-rw-r-- 1 mducamp mducamp     29138 Mar 31 13:07 optc006
-rw-rw-r-- 1 mducamp mducamp     29138 Mar 31 13:28 optc007
-rw-rw-r-- 1 mducamp mducamp     29138 Mar 31 14:06 optc009
-rw-rw-r-- 1 mducamp mducamp     29138 Mar 31 14:20 optc010
-rw-rw-r-- 1 mducamp mducamp     29138 Mar 31 14:39 optc011
-rw-rw-r-- 1 mducamp mducamp     29138 Mar 31 14:59 optc012
-rw-rw-r-- 1 mducamp mducamp     29138 Mar 31 15:16 optc013
-rw-rw-r-- 1 mducamp mducamp     29138 Mar 31 15:36 optc014
-rw-rw-r-- 1 mducamp mducamp     29138 Mar 31 15:54 optc015
-rw-rw-r-- 1 mducamp mducamp     29138 Mar 31 16:10 optc016
-rw-rw-r-- 1 mducamp mducamp     29138 Mar 31 16:31 optc017
-rw-rw-r-- 1 mducamp mducamp     29138 Mar 31 16:55 optc018
-rw-rw-r-- 1 mducamp mducamp     29138 Mar 31 17:14 optc019
-rw-rw-r-- 1 mducamp mducamp     29138 Mar 31 17:37 optc020
-rw-rw-r-- 1 mducamp mducamp     29138 Mar 31 17:56 optc021
-rw-rw-r-- 1 mducamp mducamp     29138 Mar 31 18:15 optc022
-rw-rw-r-- 1 mducamp mducamp     29138 Mar 31 18:34 optc023
-rw-rw-r-- 1 mducamp mducamp     29138 Mar 31 18:52 optc024
-rw-rw-r-- 1 mducamp mducamp     29138 Mar 31 19:15 optc025
-rw-rw-r-- 1 mducamp mducamp     29138 Mar 31 19:38 optc026
-rw-rw-r-- 1 mducamp mducamp     29138 Mar 31 19:59 optc027
-rw-rw-r-- 1 mducamp mducamp     29138 Mar 31 20:18 optc028
-rw-rw-r-- 1 mducamp mducamp     29138 Mar 31 20:37 optc029
-rw-rw-r-- 1 mducamp mducamp     29138 Mar 31 20:57 optc030
-rw-rw-r-- 1 mducamp mducamp     29138 Mar 31 21:17 optc031
-rw-rw-r-- 1 mducamp mducamp     29138 Mar 31 21:46 optc032
-rw-rw-r-- 1 mducamp mducamp     29138 Mar 31 22:10 optc033
-rw-rw-r-- 1 mducamp mducamp     29138 Mar 31 22:29 optc034
-rw-rw-r-- 1 mducamp mducamp     29138 Mar 31 22:59 optc036
-rw-rw-r-- 1 mducamp mducamp     29138 Mar 31 23:12 optc037
-rw-rw-r-- 1 mducamp mducamp     29138 Mar 31 23:41 optc039
-rw-rw-r-- 1 mducamp mducamp     29138 Mar 31 23:55 optc040
-rw-rw-r-- 1 mducamp mducamp     29138 Apr  1 00:11 optc041
-rw-rw-r-- 1 mducamp mducamp     29138 Apr  1 00:31 optc042
-rw-rw-r-- 1 mducamp mducamp     29138 Apr  1 00:51 optc043
-rw-rw-r-- 1 mducamp mducamp     29138 Apr  1 01:17 optc045
-rw-rw-r-- 1 mducamp mducamp     29138 Apr  1 01:32 optc046
-rw-rw-r-- 1 mducamp mducamp     29138 Apr  1 01:47 optc047
-rw-rw-r-- 1 mducamp mducamp     29138 Apr  1 02:04 optc049
-rw-rw-r-- 1 mducamp mducamp     29138 Apr  1 02:16 optc050
-rw-rw-r-- 1 mducamp mducamp     29138 Apr  1 02:29 optc051
-rw-rw-r-- 1 mducamp mducamp     29138 Apr  1 02:42 optc052
-rw-rw-r-- 1 mducamp mducamp     29138 Apr  1 02:54 optc053
-rw-rw-r-- 1 mducamp mducamp     29138 Apr  1 03:09 optc054
-rw-rw-r-- 1 mducamp mducamp     29138 Apr  1 03:22 optc055
-rw-rw-r-- 1 mducamp mducamp     29138 Apr  1 03:36 optc056
-rw-rw-r-- 1 mducamp mducamp     29138 Apr  1 03:49 optc057
-rw-rw-r-- 1 mducamp mducamp     29138 Apr  1 04:03 optc058
-rw-rw-r-- 1 mducamp mducamp     29138 Apr  1 04:17 optc059
-rw-rw-r-- 1 mducamp mducamp     29138 Apr  1 04:31 optc060
-rw-rw-r-- 1 mducamp mducamp     29138 Apr  1 04:47 optc061
-rw-rw-r-- 1 mducamp mducamp     29138 Apr  1 05:09 optc063
-rw-rw-r-- 1 mducamp mducamp     29138 Apr  1 05:25 optc064
-rw-rw-r-- 1 mducamp mducamp  41316897 Apr  1 05:25 OPTINFO.DAT
-rwxrwxr-x 1 mducamp mducamp  36049322 Mar 31 10:49 Pcrystal
-rw-rw-r-- 1 mducamp mducamp   8036609 Apr  1 05:25 SCFOUT.LOG
wave function binary file /home/mducamp/Shane/PBESOL0/opt_cell/full_opt/ot136.f9
file fort.98 saved as /home/mducamp/Shane/PBESOL0/opt_cell/full_opt/ot136.f98
file optcxxx saved as /home/mducamp/Shane/PBESOL0/opt_cell/full_opt/ot136.optstory/optc001 /home/mducamp/Shane/PBESOL0/opt_cell/full_opt/ot136.optstory/optc002 /home/mducamp/Shane/PBESOL0/opt_cell/full_opt/ot136.optstory/optc003 /home/mducamp/Shane/PBESOL0/opt_cell/full_opt/ot136.optstory/optc004 /home/mducamp/Shane/PBESOL0/opt_cell/full_opt/ot136.optstory/optc005 /home/mducamp/Shane/PBESOL0/opt_cell/full_opt/ot136.optstory/optc006 /home/mducamp/Shane/PBESOL0/opt_cell/full_opt/ot136.optstory/optc007 /home/mducamp/Shane/PBESOL0/opt_cell/full_opt/ot136.optstory/optc009 /home/mducamp/Shane/PBESOL0/opt_cell/full_opt/ot136.optstory/optc010 /home/mducamp/Shane/PBESOL0/opt_cell/full_opt/ot136.optstory/optc011 /home/mducamp/Shane/PBESOL0/opt_cell/full_opt/ot136.optstory/optc012 /home/mducamp/Shane/PBESOL0/opt_cell/full_opt/ot136.optstory/optc013 /home/mducamp/Shane/PBESOL0/opt_cell/full_opt/ot136.optstory/optc014 /home/mducamp/Shane/PBESOL0/opt_cell/full_opt/ot136.optstory/optc015 /home/mducamp/Shane/PBESOL0/opt_cell/full_opt/ot136.optstory/optc016 /home/mducamp/Shane/PBESOL0/opt_cell/full_opt/ot136.optstory/optc017 /home/mducamp/Shane/PBESOL0/opt_cell/full_opt/ot136.optstory/optc018 /home/mducamp/Shane/PBESOL0/opt_cell/full_opt/ot136.optstory/optc019 /home/mducamp/Shane/PBESOL0/opt_cell/full_opt/ot136.optstory/optc020 /home/mducamp/Shane/PBESOL0/opt_cell/full_opt/ot136.optstory/optc021 /home/mducamp/Shane/PBESOL0/opt_cell/full_opt/ot136.optstory/optc022 /home/mducamp/Shane/PBESOL0/opt_cell/full_opt/ot136.optstory/optc023 /home/mducamp/Shane/PBESOL0/opt_cell/full_opt/ot136.optstory/optc024 /home/mducamp/Shane/PBESOL0/opt_cell/full_opt/ot136.optstory/optc025 /home/mducamp/Shane/PBESOL0/opt_cell/full_opt/ot136.optstory/optc026 /home/mducamp/Shane/PBESOL0/opt_cell/full_opt/ot136.optstory/optc027 /home/mducamp/Shane/PBESOL0/opt_cell/full_opt/ot136.optstory/optc028 /home/mducamp/Shane/PBESOL0/opt_cell/full_opt/ot136.optstory/optc029 /home/mducamp/Shane/PBESOL0/opt_cell/full_opt/ot136.optstory/optc030 /home/mducamp/Shane/PBESOL0/opt_cell/full_opt/ot136.optstory/optc031 /home/mducamp/Shane/PBESOL0/opt_cell/full_opt/ot136.optstory/optc032 /home/mducamp/Shane/PBESOL0/opt_cell/full_opt/ot136.optstory/optc033 /home/mducamp/Shane/PBESOL0/opt_cell/full_opt/ot136.optstory/optc034 /home/mducamp/Shane/PBESOL0/opt_cell/full_opt/ot136.optstory/optc036 /home/mducamp/Shane/PBESOL0/opt_cell/full_opt/ot136.optstory/optc037 /home/mducamp/Shane/PBESOL0/opt_cell/full_opt/ot136.optstory/optc039 /home/mducamp/Shane/PBESOL0/opt_cell/full_opt/ot136.optstory/optc040 /home/mducamp/Shane/PBESOL0/opt_cell/full_opt/ot136.optstory/optc041 /home/mducamp/Shane/PBESOL0/opt_cell/full_opt/ot136.optstory/optc042 /home/mducamp/Shane/PBESOL0/opt_cell/full_opt/ot136.optstory/optc043 /home/mducamp/Shane/PBESOL0/opt_cell/full_opt/ot136.optstory/optc045 /home/mducamp/Shane/PBESOL0/opt_cell/full_opt/ot136.optstory/optc046 /home/mducamp/Shane/PBESOL0/opt_cell/full_opt/ot136.optstory/optc047 /home/mducamp/Shane/PBESOL0/opt_cell/full_opt/ot136.optstory/optc049 /home/mducamp/Shane/PBESOL0/opt_cell/full_opt/ot136.optstory/optc050 /home/mducamp/Shane/PBESOL0/opt_cell/full_opt/ot136.optstory/optc051 /home/mducamp/Shane/PBESOL0/opt_cell/full_opt/ot136.optstory/optc052 /home/mducamp/Shane/PBESOL0/opt_cell/full_opt/ot136.optstory/optc053 /home/mducamp/Shane/PBESOL0/opt_cell/full_opt/ot136.optstory/optc054 /home/mducamp/Shane/PBESOL0/opt_cell/full_opt/ot136.optstory/optc055 /home/mducamp/Shane/PBESOL0/opt_cell/full_opt/ot136.optstory/optc056 /home/mducamp/Shane/PBESOL0/opt_cell/full_opt/ot136.optstory/optc057 /home/mducamp/Shane/PBESOL0/opt_cell/full_opt/ot136.optstory/optc058 /home/mducamp/Shane/PBESOL0/opt_cell/full_opt/ot136.optstory/optc059 /home/mducamp/Shane/PBESOL0/opt_cell/full_opt/ot136.optstory/optc060 /home/mducamp/Shane/PBESOL0/opt_cell/full_opt/ot136.optstory/optc061 /home/mducamp/Shane/PBESOL0/opt_cell/full_opt/ot136.optstory/optc063 /home/mducamp/Shane/PBESOL0/opt_cell/full_opt/ot136.optstory/optc064
file HESSOPT.DAT saved as /home/mducamp/Shane/PBESOL0/opt_cell/full_opt/ot136.hessopt
file OPTINFO.DAT saved as /home/mducamp/Shane/PBESOL0/opt_cell/full_opt/ot136.optinfo
file SCFOUT.LOG saved as /home/mducamp/Shane/PBESOL0/opt_cell/full_opt/ot136.SCFLOG
file fort.20 saved as /home/mducamp/Shane/PBESOL0/opt_cell/full_opt/ot136.f20
file fort.33 saved as /home/mducamp/Shane/PBESOL0/opt_cell/full_opt/ot136.xyz
geometry input file fort.34 saved as /home/mducamp/Shane/PBESOL0/opt_cell/full_opt/ot136.gui
removing temporary directories /local/tmp_p65006_mducamp from each node
