LAMMPS data file -- atom_style full -- generated by chemfiles
2090 atoms
1180 bonds
590 angles
0 dihedrals
0 impropers
4 atom types
1 bond types
1 angle types
0 dihedral types
0 improper types
0 32 xlo xhi
0 32 ylo yhi
0 32 zlo zhi

# Pair Coeffs
# 1 Cl
# 2 Hw
# 3 Li
# 4 Ow

# Bond Coeffs
# 1 Hw-Ow

# Angle Coeffs
# 1 Hw-Ow-Hw

Masses

1 35.45 # Cl
2 1.008 # Hw
3 6.94 # Li
4 15.999 # Ow

Atoms # full

1 1 2 0 7.384 6.473 14.556 # Hw
2 1 2 0 5.914 7.169 14.413 # Hw
3 1 4 0 6.398 6.308 14.569 # Ow
4 2 2 0 3.547 24.805 0.033 # Hw
5 2 2 0 4.611 24.756 1.271 # Hw
6 2 4 0 4.508 24.68 0.28 # Ow
7 3 2 0 15.067 28.39 27.921 # Hw
8 3 2 0 14.379 29.84 27.621 # Hw
9 3 4 0 14.209 28.904 27.927 # Ow
10 4 2 0 22.243 1.149 26.364 # Hw
11 4 2 0 21.36 -0 27.116 # Hw
12 4 4 0 21.967 0.782 27.253 # Ow
13 5 2 0 5.923 14.797 15.164 # Hw
14 5 2 0 4.82 14.835 16.368 # Hw
15 5 4 0 5.657 14.397 16.042 # Ow
16 6 2 0 6.678 14.709 19.509 # Hw
17 6 2 0 8.005 15.657 19.412 # Hw
18 6 4 0 7.677 14.713 19.454 # Ow
19 7 2 0 12.767 18.715 16.121 # Hw
20 7 2 0 13.948 17.589 16.166 # Hw
21 7 4 0 13.721 18.541 16.365 # Ow
22 8 2 0 7.333 5.028 6.959 # Hw
23 8 2 0 5.905 5.185 6.184 # Hw
24 8 4 0 6.378 4.731 6.938 # Ow
25 9 2 0 21.347 2.099 29.937 # Hw
26 9 2 0 20.891 0.54 29.772 # Hw
27 9 4 0 20.582 1.459 30.014 # Ow
28 10 2 0 13.079 2.402 14.676 # Hw
29 10 2 0 13.257 2.669 16.277 # Hw
30 10 4 0 12.63 2.743 15.503 # Ow
31 11 2 0 19.941 21.505 22.679 # Hw
32 11 2 0 18.821 20.332 22.865 # Hw
33 11 4 0 18.962 21.3 22.663 # Ow
34 12 2 0 -0.004 30.002 26.761 # Hw
35 12 2 0 0.314 29.999 25.159 # Hw
36 12 4 0 0.102 29.426 25.95 # Ow
37 13 2 0 11.383 8.857 10.468 # Hw
38 13 2 0 11.479 9.51 8.975 # Hw
39 13 4 0 11.76 8.742 9.549 # Ow
40 14 2 0 27.429 22.154 8.358 # Hw
41 14 2 0 26.849 22.544 9.834 # Hw
42 14 4 0 27.357 22.88 9.042 # Ow
43 15 2 0 18.55 17.58 29.682 # Hw
44 15 2 0 19.192 16.151 29.219 # Hw
45 15 4 0 19.012 16.751 29.998 # Ow
46 16 2 0 5.252 17.51 4.188 # Hw
47 16 2 0 6.833 17.92 4.168 # Hw
48 16 4 0 5.902 18.252 4.023 # Ow
49 17 2 0 -0.001 18.489 -0.005 # Hw
50 17 2 0 -0.002 19.035 1.534 # Hw
51 17 4 0 0.38 18.354 0.91 # Ow
52 18 2 0 9.922 17.786 4.127 # Hw
53 18 2 0 9.359 17.351 2.657 # Hw
54 18 4 0 9.438 18.103 3.311 # Ow
55 19 2 0 20.451 21.481 10.796 # Hw
56 19 2 0 22.04 21.308 11.132 # Hw
57 19 4 0 21.173 20.824 11.014 # Ow
58 20 2 0 16.642 7.1 13.22 # Hw
59 20 2 0 16.249 7.633 14.713 # Hw
60 20 4 0 16.435 6.823 14.158 # Ow
61 21 2 0 17.183 15.023 27.663 # Hw
62 21 2 0 17.215 16.263 26.601 # Hw
63 21 4 0 17.013 16.002 27.545 # Ow
64 22 2 0 10.695 28.289 20.183 # Hw
65 22 2 0 9.268 27.994 20.92 # Hw
66 22 4 0 9.791 28.661 20.391 # Ow
67 23 2 0 4.432 6.288 17.273 # Hw
68 23 2 0 4.106 4.714 16.99 # Hw
69 23 4 0 4.811 5.42 16.953 # Ow
70 24 2 0 0.848 7 19.657 # Hw
71 24 2 0 0.211 5.544 19.281 # Hw
72 24 4 0 -0 6.5 19.478 # Ow
73 25 2 0 7.586 30.001 15.63 # Hw
74 25 2 0 5.994 30.005 15.993 # Hw
75 25 4 0 6.704 29.57 15.439 # Ow
76 26 2 0 7.728 29.991 18.854 # Hw
77 26 2 0 6.849 28.614 18.874 # Hw
78 26 4 0 6.802 29.612 18.867 # Ow
79 27 2 0 19.904 10.152 1.224 # Hw
80 27 2 0 20.572 11.546 1.749 # Hw
81 27 4 0 19.796 10.925 1.849 # Ow
82 28 2 0 4.864 -0.009 15.226 # Hw
83 28 2 0 6.306 0.205 15.961 # Hw
84 28 4 0 5.337 0.012 16.107 # Ow
85 29 2 0 0.075 22.272 3.132 # Hw
86 29 2 0 0.867 20.868 3.391 # Hw
87 29 4 0 -0.007 21.275 3.127 # Ow
88 30 2 0 19.515 17.919 8.483 # Hw
89 30 2 0 19.073 16.74 7.443 # Hw
90 30 4 0 18.894 17.678 7.737 # Ow
91 31 2 0 14.783 20.725 23.58 # Hw
92 31 2 0 16.27 21.296 23.223 # Hw
93 31 4 0 15.327 21.551 23.433 # Ow
94 32 2 0 7.119 -0.006 5.358 # Hw
95 32 2 0 8.743 0.025 5.523 # Hw
96 32 4 0 7.973 0.339 4.969 # Ow
97 33 2 0 6.658 14.822 2.165 # Hw
98 33 2 0 5.981 16.273 1.843 # Hw
99 33 4 0 6.53 15.756 2.499 # Ow
100 34 2 0 8.203 15.774 6.494 # Hw
101 34 2 0 7.468 14.992 7.725 # Hw
102 34 4 0 8.096 15.732 7.488 # Ow
103 35 2 0 20.704 28.354 0 # Hw
104 35 2 0 19.846 28.918 1.27 # Hw
105 35 4 0 20.548 29.142 0.595 # Ow
106 36 2 0 3.488 2.147 22.508 # Hw
107 36 2 0 1.903 2.051 22.887 # Hw
108 36 4 0 2.622 1.697 22.29 # Ow
109 37 2 0 16.007 26.911 23.522 # Hw
110 37 2 0 16.677 28.324 23.052 # Hw
111 37 4 0 16.515 27.373 22.794 # Ow
112 38 2 0 0.195 11.945 4.41 # Hw
113 38 2 0 1.798 12.25 4.349 # Hw
114 38 4 0 1.068 11.652 4.02 # Ow
115 39 2 0 20.535 23.936 1.898 # Hw
116 39 2 0 19.866 24.685 0.61 # Hw
117 39 4 0 19.725 23.99 1.314 # Ow
118 40 2 0 -0 28.109 14.024 # Hw
119 40 2 0 0.001 26.636 13.318 # Hw
120 40 4 0 0.389 27.557 13.286 # Ow
121 41 2 0 21.525 27.139 16.623 # Hw
122 41 2 0 21.824 27.374 18.211 # Hw
123 41 4 0 22.242 27.225 17.316 # Ow
124 42 2 0 17.16 8.568 5.172 # Hw
125 42 2 0 17.799 7.076 4.988 # Hw
126 42 4 0 17.224 7.652 5.569 # Ow
127 43 2 0 17.362 3.433 22.189 # Hw
128 43 2 0 15.731 3.399 22.264 # Hw
129 43 4 0 16.528 3.977 22.092 # Ow
130 44 2 0 3.745 29.985 7.564 # Hw
131 44 2 0 3.057 29.905 9.043 # Hw
132 44 4 0 3.359 29.372 8.254 # Ow
133 45 2 0 13.707 12.504 22.63 # Hw
134 45 2 0 14.046 13.995 23.206 # Hw
135 45 4 0 13.317 13.334 23.031 # Ow
136 46 2 0 2.903 27.801 18.372 # Hw
137 46 2 0 3.614 29.154 18.946 # Hw
138 46 4 0 3.777 28.263 18.523 # Ow
139 47 2 0 21.493 8.181 5.216 # Hw
140 47 2 0 22.497 7.394 6.236 # Hw
141 47 4 0 22.276 7.562 5.276 # Ow
142 48 2 0 18.478 0.007 9.956 # Hw
143 48 2 0 18.53 0.268 8.344 # Hw
144 48 4 0 17.933 0.062 9.119 # Ow
145 49 2 0 16.47 1.399 20.345 # Hw
146 49 2 0 17.998 1.824 19.955 # Hw
147 49 4 0 17.412 1.073 20.259 # Ow
148 50 2 0 24.967 17.062 4.209 # Hw
149 50 2 0 25.826 18.272 3.527 # Hw
150 50 4 0 25.887 17.391 3.995 # Ow
151 51 2 0 3.75 9.543 2.705 # Hw
152 51 2 0 5.12 10.422 2.841 # Hw
153 51 4 0 4.123 10.468 2.784 # Ow
154 52 2 0 23.887 17.248 14.956 # Hw
155 52 2 0 22.942 15.95 15.253 # Hw
156 52 4 0 23.302 16.551 14.541 # Ow
157 53 2 0 12.725 12.164 0.228 # Hw
158 53 2 0 11.482 13.101 0.721 # Hw
159 53 4 0 11.856 12.577 -0.044 # Ow
160 54 2 0 23.499 20.809 17.933 # Hw
161 54 2 0 24.498 19.536 17.714 # Hw
162 54 4 0 24.276 20.461 17.408 # Ow
163 55 2 0 29.938 11.55 12.535 # Hw
164 55 2 0 28.875 11.688 13.767 # Hw
165 55 4 0 28.97 11.524 12.786 # Ow
166 56 2 0 26.233 25.548 13.986 # Hw
167 56 2 0 26.191 23.975 13.551 # Hw
168 56 4 0 26.784 24.728 13.833 # Ow
169 57 2 0 29.594 11.029 26.245 # Hw
170 57 2 0 29.321 12.548 26.778 # Hw
171 57 4 0 30.025 11.867 26.58 # Ow
172 58 2 0 29.25 3.301 5.104 # Hw
173 58 2 0 29.743 1.745 5.068 # Hw
174 58 4 0 30.001 2.688 4.86 # Ow
175 59 2 0 27.583 9.378 11.214 # Hw
176 59 2 0 27.22 8.928 9.687 # Hw
177 59 4 0 27.628 9.645 10.251 # Ow
178 60 2 0 2.452 19.424 28.23 # Hw
179 60 2 0 2.712 20.03 29.724 # Hw
180 60 4 0 3.087 19.944 28.801 # Ow
181 61 2 0 -0.04 21.035 15.158 # Hw
182 61 2 0 -0.004 20.148 13.788 # Hw
183 61 4 0 0.029 21.074 14.161 # Ow
184 62 2 0 1.328 16.157 26.787 # Hw
185 62 2 0 2.334 15.562 27.927 # Hw
186 62 4 0 1.471 15.417 27.444 # Ow
187 63 2 0 18.906 24.028 10.801 # Hw
188 63 2 0 17.478 24.535 10.192 # Hw
189 63 4 0 17.952 23.777 10.64 # Ow
190 64 2 0 7.034 30.001 4.393 # Hw
191 64 2 0 7.154 28.507 3.745 # Hw
192 64 4 0 7.637 29.366 3.91 # Ow
193 65 2 0 24.613 25.534 23.972 # Hw
194 65 2 0 24.045 24.121 23.383 # Hw
195 65 4 0 23.953 25.115 23.348 # Ow
196 66 2 0 12.21 20.003 24.242 # Hw
197 66 2 0 12.039 21.626 24.168 # Hw
198 66 4 0 12.299 20.858 24.753 # Ow
199 67 2 0 26.098 14.749 27.73 # Hw
200 67 2 0 25.49 14.366 29.196 # Hw
201 67 4 0 25.579 15.091 28.514 # Ow
202 68 2 0 -0.004 11.908 9.38 # Hw
203 68 2 0 0.534 10.543 10.097 # Hw
204 68 4 0 0.809 11.405 9.673 # Ow
205 69 2 0 23.354 5.083 4.771 # Hw
206 69 2 0 24.924 5.078 5.22 # Hw
207 69 4 0 24.282 4.832 4.495 # Ow
208 70 2 0 6.297 2.429 8.769 # Hw
209 70 2 0 5.224 3.598 9.155 # Hw
210 70 4 0 5.334 2.625 8.952 # Ow
211 71 2 0 22.27 18.845 29.826 # Hw
212 71 2 0 20.765 19.291 29.377 # Hw
213 71 4 0 21.294 18.726 30.008 # Ow
214 72 2 0 15.596 22.489 9.38 # Hw
215 72 2 0 15.334 22.974 10.918 # Hw
216 72 4 0 15.007 23.036 9.976 # Ow
217 73 2 0 15.403 4.737 7.878 # Hw
218 73 2 0 15.792 3.291 7.228 # Hw
219 73 4 0 15.528 3.763 8.068 # Ow
220 74 2 0 2.796 28.623 21.945 # Hw
221 74 2 0 3.585 30.001 21.562 # Hw
222 74 4 0 2.74 29.622 21.938 # Ow
223 75 2 0 27.961 8.049 23.24 # Hw
224 75 2 0 26.565 8.511 23.952 # Hw
225 75 4 0 27.55 8.675 23.903 # Ow
226 76 2 0 22.332 27.185 22.505 # Hw
227 76 2 0 23.698 27.232 21.611 # Hw
228 76 4 0 22.944 27.776 21.979 # Ow
229 77 2 0 24.409 10.974 19.684 # Hw
230 77 2 0 24.396 12.557 20.084 # Hw
231 77 4 0 24.029 11.655 20.31 # Ow
232 78 2 0 22.159 9.604 20.485 # Hw
233 78 2 0 21.688 10.103 19.004 # Hw
234 78 4 0 21.991 9.318 19.542 # Ow
235 79 2 0 25.051 20.464 9.817 # Hw
236 79 2 0 24.132 19.116 9.744 # Hw
237 79 4 0 24.114 20.114 9.778 # Ow
238 80 2 0 18.725 7.109 0.388 # Hw
239 80 2 0 17.222 6.646 -0.051 # Hw
240 80 4 0 17.75 7.195 0.595 # Ow
241 81 2 0 15.898 12.931 16.784 # Hw
242 81 2 0 17.086 13.248 15.709 # Hw
243 81 4 0 16.097 13.2 15.841 # Ow
244 82 2 0 18.005 24.705 15.48 # Hw
245 82 2 0 18.775 24.248 14.114 # Hw
246 82 4 0 18.41 25.027 14.624 # Ow
247 83 2 0 30.002 16.43 14.864 # Hw
248 83 2 0 30.001 15.108 15.823 # Hw
249 83 4 0 29.446 15.677 15.217 # Ow
250 84 2 0 -0 14.559 20.222 # Hw
251 84 2 0 0.001 16.1 19.681 # Hw
252 84 4 0 0.533 15.256 19.741 # Ow
253 85 2 0 30 7.74 28.024 # Hw
254 85 2 0 28.853 6.704 27.495 # Hw
255 85 4 0 29.777 6.777 27.871 # Ow
256 86 2 0 5.527 13.063 7.456 # Hw
257 86 2 0 6.963 12.305 7.28 # Hw
258 86 4 0 5.996 12.181 7.503 # Ow
259 87 2 0 30.001 7.755 11.823 # Hw
260 87 2 0 30.002 6.875 13.199 # Hw
261 87 4 0 29.439 7.424 12.582 # Ow
262 88 2 0 22.33 16.404 7.255 # Hw
263 88 2 0 21.443 17.164 6.113 # Hw
264 88 4 0 21.757 17.201 7.061 # Ow
265 89 2 0 7.754 18.118 20.603 # Hw
266 89 2 0 7.394 17.176 21.887 # Hw
267 89 4 0 8.136 17.591 21.362 # Ow
268 90 2 0 13.516 18.688 5.546 # Hw
269 90 2 0 13.905 19.688 4.315 # Hw
270 90 4 0 13.476 18.818 4.555 # Ow
271 91 2 0 27.515 19.499 9.068 # Hw
272 91 2 0 28.15 18.029 9.391 # Hw
273 91 4 0 28.358 18.999 9.269 # Ow
274 92 2 0 5.753 30.015 9.589 # Hw
275 92 2 0 7.098 30.004 8.662 # Hw
276 92 4 0 6.186 29.613 8.782 # Ow
277 93 2 0 4.767 13.112 28.251 # Hw
278 93 2 0 6.123 12.769 29.094 # Hw
279 93 4 0 5.676 12.697 28.203 # Ow
280 94 2 0 7.49 10.913 24.359 # Hw
281 94 2 0 7.896 12.102 25.403 # Hw
282 94 4 0 7.382 11.884 24.573 # Ow
283 95 2 0 14.864 4.859 5.183 # Hw
284 95 2 0 14.902 6.434 4.754 # Hw
285 95 4 0 15.46 5.631 4.962 # Ow
286 96 2 0 5.121 22.13 16.501 # Hw
287 96 2 0 5.091 22.246 18.13 # Hw
288 96 4 0 5.623 21.933 17.344 # Ow
289 97 2 0 22.756 14.356 -0.001 # Hw
290 97 2 0 24.303 14.685 0.406 # Hw
291 97 4 0 23.515 14.103 0.6 # Ow
292 98 2 0 27.163 6.202 17.954 # Hw
293 98 2 0 26.89 7.524 18.873 # Hw
294 98 4 0 26.612 6.58 18.699 # Ow
295 99 2 0 8.515 24.492 15.577 # Hw
296 99 2 0 7.71 25.903 15.408 # Hw
297 99 4 0 8.557 25.48 15.728 # Ow
298 100 2 0 28.96 1.603 19.708 # Hw
299 100 2 0 29.019 3.159 20.198 # Hw
300 100 4 0 28.499 2.489 19.669 # Ow
301 101 2 0 13.569 7.732 11.695 # Hw
302 101 2 0 13.915 7.469 13.269 # Hw
303 101 4 0 13.224 7.357 12.555 # Ow
304 102 2 0 8.839 13.393 0.025 # Hw
305 102 2 0 8.986 11.769 0.119 # Hw
306 102 4 0 8.378 12.544 0.286 # Ow
307 103 2 0 17.326 30 26.253 # Hw
308 103 2 0 18.148 29.985 24.841 # Hw
309 103 4 0 17.487 29.492 25.406 # Ow
310 104 2 0 8.445 28.012 29.245 # Hw
311 104 2 0 7.528 27.18 28.18 # Hw
312 104 4 0 7.6 27.49 29.127 # Ow
313 105 2 0 9.409 8.722 24.523 # Hw
314 105 2 0 9.832 9.989 25.463 # Hw
315 105 4 0 9.731 8.995 25.43 # Ow
316 106 2 0 14.733 29.983 24.086 # Hw
317 106 2 0 14.709 28.726 25.129 # Hw
318 106 4 0 14.159 29.445 24.704 # Ow
319 107 2 0 29.998 22.87 22.826 # Hw
320 107 2 0 29.175 21.486 23.095 # Hw
321 107 4 0 30.002 21.879 22.695 # Ow
322 108 2 0 18.542 16.102 14.399 # Hw
323 108 2 0 20.105 15.776 14.74 # Hw
324 108 4 0 19.487 16.394 14.255 # Ow
325 109 2 0 14.67 12.442 29.999 # Hw
326 109 2 0 13.038 12.387 29.999 # Hw
327 109 4 0 13.873 11.838 29.999 # Ow
328 110 2 0 6.754 8.295 10.283 # Hw
329 110 2 0 5.325 9.05 10.054 # Hw
330 110 4 0 6.307 9.183 10.181 # Ow
331 111 2 0 23.453 30 9.651 # Hw
332 111 2 0 24.984 29.457 9.48 # Hw
333 111 4 0 24.033 29.185 9.625 # Ow
334 112 2 0 20.613 21.616 3.523 # Hw
335 112 2 0 19.832 20.373 2.807 # Hw
336 112 4 0 20.128 21.322 2.699 # Ow
337 113 2 0 28.566 26.321 4.214 # Hw
338 113 2 0 27.489 27.546 4.297 # Hw
339 113 4 0 27.963 26.839 4.821 # Ow
340 114 2 0 18.989 1.362 27.409 # Hw
341 114 2 0 19.972 2.649 27.617 # Hw
342 114 4 0 19.085 2.253 27.852 # Ow
343 115 2 0 28.916 15.377 23.993 # Hw
344 115 2 0 29.799 16.743 23.851 # Hw
345 115 4 0 29.778 15.821 24.237 # Ow
346 116 2 0 8.541 2.624 6.389 # Hw
347 116 2 0 8.811 1.696 7.705 # Hw
348 116 4 0 8.662 2.63 7.382 # Ow
349 117 2 0 10.147 21.598 2.926 # Hw
350 117 2 0 10.58 20.523 4.076 # Hw
351 117 4 0 9.863 21.149 3.773 # Ow
352 118 2 0 10.73 12.379 3.615 # Hw
353 118 2 0 11.772 13.618 3.399 # Hw
354 118 4 0 11.24 13.107 4.073 # Ow
355 119 2 0 26.721 25.515 25.739 # Hw
356 119 2 0 26.37 27.078 25.422 # Hw
357 119 4 0 26.375 26.369 26.127 # Ow
358 120 2 0 11.925 19.977 18.414 # Hw
359 120 2 0 10.39 20.413 18.065 # Hw
360 120 4 0 11.311 20.751 18.256 # Ow
361 121 2 0 14.61 5.801 15.942 # Hw
362 121 2 0 14.373 4.955 17.319 # Hw
363 121 4 0 13.931 5.324 16.501 # Ow
364 122 2 0 28.199 26.473 23.006 # Hw
365 122 2 0 27.329 27.537 22.125 # Hw
366 122 4 0 27.28 26.823 22.822 # Ow
367 123 2 0 1.968 17.86 18.928 # Hw
368 123 2 0 2.634 19.264 19.43 # Hw
369 123 4 0 2.131 18.451 19.718 # Ow
370 124 2 0 29.582 3.918 11.625 # Hw
371 124 2 0 28.935 5.262 10.96 # Hw
372 124 4 0 29.016 4.724 11.798 # Ow
373 125 2 0 20.09 11.022 29.933 # Hw
374 125 2 0 20.657 9.491 29.903 # Hw
375 125 4 0 20.91 10.453 30.002 # Ow
376 126 2 0 11.222 0.002 7.255 # Hw
377 126 2 0 12.412 1.11 7.396 # Hw
378 126 4 0 11.446 0.923 7.572 # Ow
379 127 2 0 16.637 29.999 14.004 # Hw
380 127 2 0 16.084 29.549 15.473 # Hw
381 127 4 0 16.203 29.263 14.523 # Ow
382 128 2 0 19.303 18.478 27.194 # Hw
383 128 2 0 19.922 18.697 25.699 # Hw
384 128 4 0 19.473 18.044 26.309 # Ow
385 129 2 0 17.417 21.599 2.336 # Hw
386 129 2 0 16.014 20.933 2.844 # Hw
387 129 4 0 16.446 21.481 2.127 # Ow
388 130 2 0 6.88 5.805 0.001 # Hw
389 130 2 0 7.688 4.389 0.095 # Hw
390 130 4 0 7.785 5.382 0.046 # Ow
391 131 2 0 25.099 11.819 14.968 # Hw
392 131 2 0 26.193 11.139 13.964 # Hw
393 131 4 0 25.785 12.001 14.263 # Ow
394 132 2 0 19.118 23.503 20.642 # Hw
395 132 2 0 19.991 22.263 20.036 # Hw
396 132 4 0 19.084 22.681 20.073 # Ow
397 133 2 0 10.36 30.002 18.059 # Hw
398 133 2 0 11.657 30.001 17.066 # Hw
399 133 4 0 11.015 29.425 17.571 # Ow
400 134 2 0 9.199 8.088 19.526 # Hw
401 134 2 0 10.811 7.871 19.383 # Hw
402 134 4 0 9.915 7.465 19.21 # Ow
403 135 2 0 29.884 19.776 2.889 # Hw
404 135 2 0 28.348 19.228 2.977 # Hw
405 135 4 0 28.938 20.024 3.102 # Ow
406 136 2 0 25.855 14.64 15.011 # Hw
407 136 2 0 27.039 13.949 15.898 # Hw
408 136 4 0 26.807 14.721 15.307 # Ow
409 137 2 0 13.858 6.675 20.975 # Hw
410 137 2 0 12.705 7.659 21.58 # Hw
411 137 4 0 12.915 6.722 21.305 # Ow
412 138 2 0 24.282 29.964 6.497 # Hw
413 138 2 0 22.853 29.917 5.709 # Hw
414 138 4 0 23.844 29.842 5.607 # Ow
415 139 2 0 10.364 9.106 21.801 # Hw
416 139 2 0 9.37 10.257 21.207 # Hw
417 139 4 0 9.472 9.545 21.901 # Ow
418 140 2 0 26.531 9.111 16.462 # Hw
419 140 2 0 27.642 10.257 16.118 # Hw
420 140 4 0 26.716 10.094 16.455 # Ow
421 141 2 0 7.942 6.265 23.734 # Hw
422 141 2 0 6.328 6.51 23.771 # Hw
423 141 4 0 7.049 5.818 23.782 # Ow
424 142 2 0 21.159 4.52 25.99 # Hw
425 142 2 0 20.376 3.461 25.025 # Hw
426 142 4 0 20.413 4.411 25.333 # Ow
427 143 2 0 9.821 3.803 26.827 # Hw
428 143 2 0 8.293 3.575 26.298 # Hw
429 143 4 0 9.17 3.13 26.476 # Ow
430 144 2 0 25.774 6.605 9.963 # Hw
431 144 2 0 26.657 6.791 11.324 # Hw
432 144 4 0 26.349 6.137 10.635 # Ow
433 145 2 0 22.851 26.384 2.132 # Hw
434 145 2 0 21.234 26.592 2.044 # Hw
435 145 4 0 22.035 26.22 1.577 # Ow
436 146 2 0 11.374 17.23 7.456 # Hw
437 146 2 0 9.882 17.794 7.809 # Hw
438 146 4 0 10.42 17.262 7.156 # Ow
439 147 2 0 26.667 9.409 21.23 # Hw
440 147 2 0 26.466 10.98 21.628 # Hw
441 147 4 0 27.136 10.25 21.499 # Ow
442 148 2 0 2.034 10.822 24.655 # Hw
443 148 2 0 1.078 11.876 23.855 # Hw
444 148 4 0 1.98 11.445 23.875 # Ow
445 149 2 0 8.192 7.703 27.293 # Hw
446 149 2 0 7.68 6.39 26.468 # Hw
447 149 4 0 7.408 7.111 27.104 # Ow
448 150 2 0 3.357 21.763 2.641 # Hw
449 150 2 0 4.868 21.151 2.543 # Hw
450 150 4 0 4.331 21.989 2.634 # Ow
451 151 2 0 29.888 14.742 10.224 # Hw
452 151 2 0 29.809 16.292 10.731 # Hw
453 151 4 0 29.355 15.587 10.188 # Ow
454 152 2 0 20.503 -0 13.35 # Hw
455 152 2 0 22.127 0.036 13.515 # Hw
456 152 4 0 21.285 0.566 13.61 # Ow
457 153 2 0 -0.053 27.445 10.373 # Hw
458 153 2 0 1.554 27.646 10.167 # Hw
459 153 4 0 0.839 26.995 10.419 # Ow
460 154 2 0 23.095 22.564 14.434 # Hw
461 154 2 0 22.628 23.681 13.339 # Hw
462 154 4 0 22.872 22.721 13.472 # Ow
463 155 2 0 15.738 18.666 27.946 # Hw
464 155 2 0 14.759 17.551 27.264 # Hw
465 155 4 0 15.193 18.442 27.138 # Ow
466 156 2 0 8.075 8.249 0.305 # Hw
467 156 2 0 9.623 8.69 0.028 # Hw
468 156 4 0 8.984 7.922 0.046 # Ow
469 157 2 0 8.836 20.262 24.69 # Hw
470 157 2 0 9.806 19.093 25.29 # Hw
471 157 4 0 9.504 19.555 24.457 # Ow
472 158 2 0 6.045 7.42 3.857 # Hw
473 158 2 0 7.119 8.172 2.884 # Hw
474 158 4 0 6.603 8.241 3.737 # Ow
475 159 2 0 4.508 18.471 23.941 # Hw
476 159 2 0 5.454 17.144 23.835 # Hw
477 159 4 0 4.512 17.472 23.909 # Ow
478 160 2 0 10.413 1 3.57 # Hw
479 160 2 0 11.687 -0.021 3.519 # Hw
480 160 4 0 10.691 0.039 3.588 # Ow
481 161 2 0 10.789 3.771 24.254 # Hw
482 161 2 0 9.34 3.228 23.733 # Hw
483 161 4 0 9.902 4.041 23.879 # Ow
484 162 2 0 3.649 8.567 25.587 # Hw
485 162 2 0 4.911 8.105 26.515 # Hw
486 162 4 0 4.551 8.135 25.583 # Ow
487 163 2 0 24.26 7.276 12.923 # Hw
488 163 2 0 24.219 5.799 13.619 # Hw
489 163 4 0 24.368 6.294 12.764 # Ow
490 164 2 0 2.914 -0.016 3.237 # Hw
491 164 2 0 1.386 0.017 2.661 # Hw
492 164 4 0 2.009 0.398 3.343 # Ow
493 165 2 0 8.681 24.972 11.042 # Hw
494 165 2 0 9.083 23.392 11.128 # Hw
495 165 4 0 8.639 24.148 11.607 # Ow
496 166 2 0 10.163 21.852 14.923 # Hw
497 166 2 0 10.296 23.163 13.958 # Hw
498 166 4 0 10.58 22.756 14.825 # Ow
499 167 2 0 17.208 12.951 3.287 # Hw
500 167 2 0 16.389 11.959 2.282 # Hw
501 167 4 0 16.581 12.174 3.239 # Ow
502 168 2 0 8.9 2.016 10.434 # Hw
503 168 2 0 8.874 2.662 11.934 # Hw
504 168 4 0 8.82 2.865 10.957 # Ow
505 169 2 0 22.754 5.019 7.597 # Hw
506 169 2 0 21.969 4.389 8.883 # Hw
507 169 4 0 22.502 5.168 8.553 # Ow
508 170 2 0 6.445 21.721 30 # Hw
509 170 2 0 8.071 21.713 29.84 # Hw
510 170 4 0 7.269 22.288 30 # Ow
511 171 2 0 17.68 23.268 7.76 # Hw
512 171 2 0 17.442 23.647 6.189 # Hw
513 171 4 0 18.082 23.246 6.844 # Ow
514 172 2 0 21.934 20.314 26.76 # Hw
515 172 2 0 21.791 21.874 27.218 # Hw
516 172 4 0 21.386 20.963 27.287 # Ow
517 173 2 0 16.497 0.066 6.246 # Hw
518 173 2 0 17.811 0.906 5.762 # Hw
519 173 4 0 17.412 -0.006 5.848 # Ow
520 174 2 0 25.674 16.853 9.594 # Hw
521 174 2 0 26.17 15.392 9.059 # Hw
522 174 4 0 25.375 15.977 9.214 # Ow
523 175 2 0 27.313 3.627 -0 # Hw
524 175 2 0 26.985 2.066 0.349 # Hw
525 175 4 0 26.605 2.989 0.303 # Ow
526 176 2 0 17.689 6.601 16.961 # Hw
527 176 2 0 19.246 6.48 17.439 # Hw
528 176 4 0 18.365 6.01 17.402 # Ow
529 177 2 0 0.004 7.352 8.113 # Hw
530 177 2 0 1.383 7.077 7.284 # Hw
531 177 4 0 0.493 6.699 7.535 # Ow
532 178 2 0 22.775 14.018 29.922 # Hw
533 178 2 0 21.146 13.976 30.029 # Hw
534 178 4 0 21.97 13.424 29.906 # Ow
535 179 2 0 28.994 13.042 20.788 # Hw
536 179 2 0 27.743 12.618 19.827 # Hw
537 179 4 0 28.721 12.497 19.994 # Ow
538 180 2 0 25.194 20.008 1.493 # Hw
539 180 2 0 25.542 21.588 1.271 # Hw
540 180 4 0 25.931 20.673 1.37 # Ow
541 181 2 0 24.604 17.949 7.3 # Hw
542 181 2 0 25.4 19.375 7.317 # Hw
543 181 4 0 25.506 18.381 7.312 # Ow
544 182 2 0 28.206 14.495 7.443 # Hw
545 182 2 0 29.784 14.188 7.157 # Hw
546 182 4 0 28.954 14.606 6.789 # Ow
547 183 2 0 28.016 19.116 21.886 # Hw
548 183 2 0 29.531 18.919 21.308 # Hw
549 183 4 0 28.965 18.919 22.132 # Ow
550 184 2 0 29.999 19.377 25.296 # Hw
551 184 2 0 30 20.967 25.666 # Hw
552 184 4 0 29.425 20.16 25.534 # Ow
553 185 2 0 12.101 0.902 -0.016 # Hw
554 185 2 0 10.984 0.092 0.857 # Hw
555 185 4 0 11.701 0.004 0.167 # Ow
556 186 2 0 8.17 15.265 13.651 # Hw
557 186 2 0 8.48 13.75 14.175 # Hw
558 186 4 0 8.887 14.633 13.945 # Ow
559 187 2 0 -0.003 7.968 4.578 # Hw
560 187 2 0 0.589 8.039 3.058 # Hw
561 187 4 0 0.281 8.58 3.84 # Ow
562 188 2 0 26.376 18.017 0.009 # Hw
563 188 2 0 26.423 16.385 0 # Hw
564 188 4 0 26.008 17.187 0.428 # Ow
565 189 2 0 22.547 24.447 21.081 # Hw
566 189 2 0 22.018 23.096 21.831 # Hw
567 189 4 0 21.736 23.932 21.362 # Ow
568 190 2 0 29.93 17.895 7.302 # Hw
569 190 2 0 29.527 18.654 5.913 # Hw
570 190 4 0 30.019 17.878 6.306 # Ow
571 191 2 0 19.668 16.642 -0.008 # Hw
572 191 2 0 19.632 18.274 0.046 # Hw
573 191 4 0 20.218 17.468 0.116 # Ow
574 192 2 0 1.271 -0.001 11.419 # Hw
575 192 2 0 2.378 -0.004 10.218 # Hw
576 192 4 0 1.401 0.017 10.427 # Ow
577 193 2 0 7.105 8.154 21.683 # Hw
578 193 2 0 6.63 9.669 22.063 # Hw
579 193 4 0 6.385 8.702 22.11 # Ow
580 194 2 0 7.242 25.628 18.139 # Hw
581 194 2 0 8.319 24.413 18.317 # Hw
582 194 4 0 8.164 25.392 18.447 # Ow
583 195 2 0 0.033 2.49 9.889 # Hw
584 195 2 0 0.353 1.681 8.508 # Hw
585 195 4 0 0.701 2.355 9.158 # Ow
586 196 2 0 24.022 10.094 17.01 # Hw
587 196 2 0 22.968 10.277 15.776 # Hw
588 196 4 0 23.165 10.523 16.724 # Ow
589 197 2 0 23.926 2.82 29.312 # Hw
590 197 2 0 25.306 2.286 30.002 # Hw
591 197 4 0 24.816 3.094 29.677 # Ow
592 198 2 0 21.276 13.113 5.645 # Hw
593 198 2 0 20.58 14.557 5.957 # Hw
594 198 4 0 20.594 13.776 5.334 # Ow
595 199 2 0 6.512 20.192 19.279 # Hw
596 199 2 0 5.3 19.231 18.755 # Hw
597 199 4 0 6.278 19.422 18.684 # Ow
598 200 2 0 24.044 5.597 24.946 # Hw
599 200 2 0 22.765 6.586 25.175 # Hw
600 200 4 0 23.656 6.309 25.532 # Ow
601 201 2 0 5.499 20.572 12.452 # Hw
602 201 2 0 5.184 21.371 13.841 # Hw
603 201 4 0 4.89 20.625 13.244 # Ow
604 202 2 0 21.867 16.91 21.602 # Hw
605 202 2 0 21.669 18.113 20.515 # Hw
606 202 4 0 22.299 17.415 20.854 # Ow
607 203 2 0 28.619 15.962 1.6 # Hw
608 203 2 0 27.933 14.997 2.725 # Hw
609 203 4 0 27.888 15.89 2.279 # Ow
610 204 2 0 27.056 24.265 5.817 # Hw
611 204 2 0 28.114 23.659 4.73 # Hw
612 204 4 0 27.953 23.837 5.701 # Ow
613 205 2 0 20.396 22.096 14.666 # Hw
614 205 2 0 19.432 20.781 14.57 # Hw
615 205 4 0 19.827 21.46 15.188 # Ow
616 206 2 0 6.531 10.528 0.001 # Hw
617 206 2 0 4.931 10.205 0.031 # Hw
618 206 4 0 5.839 9.85 0.25 # Ow
619 207 2 0 6.453 19.702 22.436 # Hw
620 207 2 0 7.099 21.068 21.817 # Hw
621 207 4 0 7.252 20.304 22.442 # Ow
622 208 2 0 5.463 0.38 1.506 # Hw
623 208 2 0 5.555 0.737 3.097 # Hw
624 208 4 0 5.541 -0.004 2.426 # Ow
625 209 2 0 23.403 17.453 24.502 # Hw
626 209 2 0 24.098 18.758 25.195 # Hw
627 209 4 0 24.236 17.804 24.931 # Ow
628 210 2 0 19.681 21.424 8.158 # Hw
629 210 2 0 18.383 20.615 7.586 # Hw
630 210 4 0 19.37 20.571 7.741 # Ow
631 211 2 0 11.22 12.014 24.224 # Hw
632 211 2 0 9.845 11.913 23.35 # Hw
633 211 4 0 10.321 12.422 24.066 # Ow
634 212 2 0 14.909 6.567 29.329 # Hw
635 212 2 0 15.793 7.854 29.806 # Hw
636 212 4 0 15.836 6.922 29.447 # Ow
637 213 2 0 30 28.07 19.923 # Hw
638 213 2 0 29.809 28.98 18.581 # Hw
639 213 4 0 29.739 28.972 19.578 # Ow
640 214 2 0 13.582 18 19.365 # Hw
641 214 2 0 12.443 17.278 18.445 # Hw
642 214 4 0 12.704 17.521 19.378 # Ow
643 215 2 0 11.504 4.274 13.42 # Hw
644 215 2 0 12.828 5.045 13.985 # Hw
645 215 4 0 11.92 5.168 13.586 # Ow
646 216 2 0 8.402 14.629 22.172 # Hw
647 216 2 0 7.389 13.351 22.245 # Hw
648 216 4 0 8.28 13.668 21.924 # Ow
649 217 2 0 23.12 22.654 3.967 # Hw
650 217 2 0 23.294 21.381 2.959 # Hw
651 217 4 0 23.773 22.004 3.576 # Ow
652 218 2 0 0.064 4.985 1.894 # Hw
653 218 2 0 1.317 4.13 2.499 # Hw
654 218 4 0 0.469 4.074 1.974 # Ow
655 219 2 0 11.088 22.875 20.514 # Hw
656 219 2 0 12.25 23.076 19.385 # Hw
657 219 4 0 11.273 23.165 19.575 # Ow
658 220 2 0 24.865 15.147 22.212 # Hw
659 220 2 0 25.144 15.447 23.792 # Hw
660 220 4 0 24.436 15.326 23.097 # Ow
661 221 2 0 19.314 4.181 29.802 # Hw
662 221 2 0 19.188 5.137 28.484 # Hw
663 221 4 0 19.184 5.12 29.483 # Ow
664 222 2 0 3.122 15.22 23.162 # Hw
665 222 2 0 1.829 15.223 22.165 # Hw
666 222 4 0 2.711 15.651 22.358 # Ow
667 223 2 0 0.614 24.323 11.028 # Hw
668 223 2 0 0.171 24.489 9.465 # Hw
669 223 4 0 0.026 23.964 10.303 # Ow
670 224 2 0 17.736 28.982 30 # Hw
671 224 2 0 16.52 30 29.612 # Hw
672 224 4 0 16.743 29.1 29.984 # Ow
673 225 2 0 14.301 11.957 10.573 # Hw
674 225 2 0 13.583 10.494 10.669 # Hw
675 225 4 0 13.584 11.427 11.026 # Ow
676 226 2 0 21.56 11.446 7.813 # Hw
677 226 2 0 22.276 10.466 8.905 # Hw
678 226 4 0 21.994 11.405 8.713 # Ow
679 227 2 0 -0.023 22.76 20.374 # Hw
680 227 2 0 0.486 23.939 21.383 # Hw
681 227 4 0 0.012 23.748 20.524 # Ow
682 228 2 0 12.02 0.197 13.419 # Hw
683 228 2 0 13.367 0.176 12.496 # Hw
684 228 4 0 12.993 -0.031 13.4 # Ow
685 229 2 0 8.544 7.879 12.498 # Hw
686 229 2 0 9.202 9.313 12.08 # Hw
687 229 4 0 9.399 8.359 12.301 # Ow
688 230 2 0 28.693 12.266 10.152 # Hw
689 230 2 0 27.559 13.338 10.633 # Hw
690 230 4 0 27.723 12.39 10.36 # Ow
691 231 2 0 4.291 27.818 10.36 # Hw
692 231 2 0 5.847 27.323 10.361 # Hw
693 231 4 0 4.905 27.053 10.166 # Ow
694 232 2 0 11.866 30.027 10.467 # Hw
695 232 2 0 13.275 29.676 9.721 # Hw
696 232 4 0 12.465 29.288 10.159 # Ow
697 233 2 0 24.756 21.896 29.993 # Hw
698 233 2 0 23.309 21.364 29.454 # Hw
699 233 4 0 24.277 21.135 29.555 # Ow
700 234 2 0 21.632 1.015 17.161 # Hw
701 234 2 0 22.862 -0.052 17.276 # Hw
702 234 4 0 21.934 0.09 16.932 # Ow
703 235 2 0 6.271 12.033 14.715 # Hw
704 235 2 0 5.242 11.313 15.757 # Hw
705 235 4 0 6.037 11.173 15.169 # Ow
706 236 2 0 27.401 24.285 28.817 # Hw
707 236 2 0 28.26 23.672 27.571 # Hw
708 236 4 0 27.411 23.596 28.093 # Ow
709 237 2 0 3.083 7.915 11.488 # Hw
710 237 2 0 2.392 7.545 12.921 # Hw
711 237 4 0 2.238 7.957 12.023 # Ow
712 238 2 0 14.123 6.796 9.171 # Hw
713 238 2 0 13.378 5.412 9.612 # Hw
714 238 4 0 13.249 6.31 9.193 # Ow
715 239 2 0 5.163 9.418 29.276 # Hw
716 239 2 0 4.244 8.28 30.001 # Hw
717 239 4 0 4.865 8.464 29.241 # Ow
718 240 2 0 24.63 25.799 30 # Hw
719 240 2 0 24.811 27.421 29.973 # Hw
720 240 4 0 24.147 26.674 29.983 # Ow
721 241 2 0 19.762 20.327 17.92 # Hw
722 241 2 0 18.701 19.57 16.936 # Hw
723 241 4 0 18.794 20.141 17.751 # Ow
724 242 2 0 19.517 26.116 9.045 # Hw
725 242 2 0 18.076 26.861 8.852 # Hw
726 242 4 0 19.051 27.001 9.019 # Ow
727 243 2 0 22.109 19.457 15.983 # Hw
728 243 2 0 21.266 18.169 15.439 # Hw
729 243 4 0 21.225 18.99 16.008 # Ow
730 244 2 0 17.266 9.393 25.622 # Hw
731 244 2 0 15.696 9.376 25.172 # Hw
732 244 4 0 16.478 9.962 25.383 # Ow
733 245 2 0 24.269 9.223 0.053 # Hw
734 245 2 0 25.46 8.107 -0 # Hw
735 245 4 0 25.079 8.869 0.522 # Ow
736 246 2 0 2.959 29.996 11.948 # Hw
737 246 2 0 1.531 29.999 12.74 # Hw
738 246 4 0 1.986 29.775 11.879 # Ow
739 247 2 0 15.621 1.215 15.309 # Hw
740 247 2 0 15.022 0.114 16.355 # Hw
741 247 4 0 15.262 0.286 15.4 # Ow
742 248 2 0 20.968 14.514 2.221 # Hw
743 248 2 0 20.847 16.129 2.433 # Hw
744 248 4 0 20.425 15.245 2.635 # Ow
745 249 2 0 24.582 3.104 13.213 # Hw
746 249 2 0 25.687 3.581 14.316 # Hw
747 249 4 0 25.399 2.831 13.721 # Ow
748 250 2 0 17.666 1.604 24.866 # Hw
749 250 2 0 16.096 1.766 24.448 # Hw
750 250 4 0 17.005 1.509 24.122 # Ow
751 251 2 0 18.852 21.494 -0.007 # Hw
752 251 2 0 20.472 21.694 -0.002 # Hw
753 251 4 0 19.733 21.021 -0.004 # Ow
754 252 2 0 23.634 5.309 0.743 # Hw
755 252 2 0 23.595 3.678 0.664 # Hw
756 252 4 0 24.191 4.481 0.679 # Ow
757 253 2 0 8.997 4.722 21.376 # Hw
758 253 2 0 7.679 5.574 20.924 # Hw
759 253 4 0 7.997 4.742 21.377 # Ow
760 254 2 0 7.82 22.068 13.504 # Hw
761 254 2 0 7.788 20.509 13.987 # Hw
762 254 4 0 8.087 21.134 13.267 # Ow
763 255 2 0 15.551 3.03 28.569 # Hw
764 255 2 0 16.643 4.095 29.152 # Hw
765 255 4 0 15.684 3.963 28.905 # Ow
766 256 2 0 15.902 10.408 20.152 # Hw
767 256 2 0 14.983 9.278 20.891 # Hw
768 256 4 0 15.688 9.432 20.2 # Ow
769 257 2 0 21.355 14.736 9.338 # Hw
770 257 2 0 19.89 15.37 9.684 # Hw
771 257 4 0 20.826 15.583 9.405 # Ow
772 258 2 0 15.118 0.929 8.463 # Hw
773 258 2 0 14.369 0.005 9.582 # Hw
774 258 4 0 14.64 0.064 8.622 # Ow
775 259 2 0 17.332 28.206 6.316 # Hw
776 259 2 0 17.935 28.649 4.865 # Hw
777 259 4 0 17.362 27.983 5.341 # Ow
778 260 2 0 4.439 9.579 5.368 # Hw
779 260 2 0 5.452 9.625 6.648 # Hw
780 260 4 0 5.374 9.775 5.663 # Ow
781 261 2 0 17.493 10.793 13.485 # Hw
782 261 2 0 18.151 10.155 14.837 # Hw
783 261 4 0 17.929 11.005 14.36 # Ow
784 262 2 0 2.938 29.338 24.666 # Hw
785 262 2 0 4.328 29.932 25.284 # Hw
786 262 4 0 3.331 29.965 25.34 # Ow
787 263 2 0 6.024 24.925 23.302 # Hw
788 263 2 0 6.122 23.311 23.078 # Hw
789 263 4 0 5.497 24.08 23.21 # Ow
790 264 2 0 6.331 9.786 19.332 # Hw
791 264 2 0 7.343 11.057 19.502 # Hw
792 264 4 0 7.289 10.063 19.421 # Ow
793 265 2 0 19.235 4.446 20.442 # Hw
794 265 2 0 17.778 4.554 19.712 # Hw
795 265 4 0 18.601 5.06 19.971 # Ow
796 266 2 0 22.304 7.021 17.688 # Hw
797 266 2 0 23.077 7.595 16.37 # Hw
798 266 4 0 22.273 7.698 16.953 # Ow
799 267 2 0 12.542 16.813 23.996 # Hw
800 267 2 0 11.919 16.339 22.563 # Hw
801 267 4 0 12.214 16.031 23.466 # Ow
802 268 2 0 19.422 16.608 23.965 # Hw
803 268 2 0 18.584 15.239 24.266 # Hw
804 268 4 0 19.395 15.77 24.511 # Ow
805 269 2 0 19.06 25.251 28.655 # Hw
806 269 2 0 17.975 26.389 29.096 # Hw
807 269 4 0 18.451 25.972 28.323 # Ow
808 270 2 0 0.317 10.652 14.025 # Hw
809 270 2 0 1.35 10.447 12.777 # Hw
810 270 4 0 0.394 10.389 13.063 # Ow
811 271 2 0 3.811 22.595 28.695 # Hw
812 271 2 0 3.595 23.509 30.031 # Hw
813 271 4 0 3.244 23.302 29.119 # Ow
814 272 2 0 22.111 17.575 26.927 # Hw
815 272 2 0 21.704 16.682 28.233 # Hw
816 272 4 0 22.28 16.719 27.417 # Ow
817 273 2 0 7.67 5.48 2.785 # Hw
818 273 2 0 8.072 5.07 4.314 # Hw
819 273 4 0 8.206 5.744 3.588 # Ow
820 274 2 0 18.817 6.357 9.456 # Hw