1680
Atoms. Timestep: 0
Al 9.361 -0.083 2.829
Al 9.361 -0.083 11.315
Al 9.361 -0.083 19.801
Al 9.361 -0.083 -5.657
Al 9.361 -0.083 -14.143
Al 9.361 -0.083 -2.829
Al 9.361 -0.083 5.657
Al 9.361 -0.083 14.143
Al 9.361 -0.083 -11.315
Al 9.361 -0.083 22.629
Al 9.064 2.342 7.072
Al 9.064 2.342 15.558
Al 9.064 2.342 -18.386
Al 9.064 2.342 -1.414
Al 9.064 2.342 -9.9
Al 9.064 2.342 1.414
Al 9.064 2.342 9.9
Al 9.064 2.342 18.386
Al 9.064 2.342 -7.072
Al 9.064 2.342 -15.558
Al 8.149 4.608 2.829
Al 8.149 4.608 11.315
Al 8.149 4.608 19.801
Al 8.149 4.608 -5.657
Al 8.149 4.608 -14.143
Al 8.149 4.608 -2.829
Al 8.149 4.608 5.657
Al 8.149 4.608 14.143
Al 8.149 4.608 -11.315
Al 8.149 4.608 22.629
Al 6.678 6.56 7.072
Al 6.678 6.56 15.558
Al 6.678 6.56 -18.386
Al 6.678 6.56 -1.414
Al 6.678 6.56 -9.9
Al 6.678 6.56 1.414
Al 6.678 6.56 9.9
Al 6.678 6.56 18.386
Al 6.678 6.56 -7.072
Al 6.678 6.56 -15.558
Al 4.753 8.065 2.829
Al 4.753 8.065 11.315
Al 4.753 8.065 19.801
Al 4.753 8.065 -5.657
Al 4.753 8.065 -14.143
Al 4.753 8.065 -2.829
Al 4.753 8.065 5.657
Al 4.753 8.065 14.143
Al 4.753 8.065 -11.315
Al 4.753 8.065 22.629
Al 2.503 9.021 7.072
Al 2.503 9.021 15.558
Al 2.503 9.021 -18.386
Al 2.503 9.021 -1.414
Al 2.503 9.021 -9.9
Al 2.503 9.021 1.414
Al 2.503 9.021 9.9
Al 2.503 9.021 18.386
Al 2.503 9.021 -7.072
Al 2.503 9.021 -15.558
Al 0.083 9.361 2.829
Al 0.083 9.361 11.315
Al 0.083 9.361 19.801
Al 0.083 9.361 -5.657
Al 0.083 9.361 -14.143
Al 0.083 9.361 -2.829
Al 0.083 9.361 5.657
Al 0.083 9.361 14.143
Al 0.083 9.361 -11.315
Al 0.083 9.361 22.629
Al -2.342 9.064 7.072
Al -2.342 9.064 15.558
Al -2.342 9.064 -18.386
Al -2.342 9.064 -1.414
Al -2.342 9.064 -9.9
Al -2.342 9.064 1.414
Al -2.342 9.064 9.9
Al -2.342 9.064 18.386
Al -2.342 9.064 -7.072
Al -2.342 9.064 -15.558
Al -4.608 8.149 2.829
Al -4.608 8.149 11.315
Al -4.608 8.149 19.801
Al -4.608 8.149 -5.657
Al -4.608 8.149 -14.143
Al -4.608 8.149 -2.829
Al -4.608 8.149 5.657
Al -4.608 8.149 14.143
Al -4.608 8.149 -11.315
Al -4.608 8.149 22.629
Al -6.56 6.678 7.072
Al -6.56 6.678 15.558
Al -6.56 6.678 -18.386
Al -6.56 6.678 -1.414
Al -6.56 6.678 -9.9
Al -6.56 6.678 1.414
Al -6.56 6.678 9.9
Al -6.56 6.678 18.386
Al -6.56 6.678 -7.072
Al -6.56 6.678 -15.558
Al -8.065 4.753 2.829
Al -8.065 4.753 11.315
Al -8.065 4.753 19.801
Al -8.065 4.753 -5.657
Al -8.065 4.753 -14.143
Al -8.065 4.753 -2.829
Al -8.065 4.753 5.657
Al -8.065 4.753 14.143
Al -8.065 4.753 -11.315
Al -8.065 4.753 22.629
Al -9.021 2.503 7.072
Al -9.021 2.503 15.558
Al -9.021 2.503 -18.386
Al -9.021 2.503 -1.414
Al -9.021 2.503 -9.9
Al -9.021 2.503 1.414
Al -9.021 2.503 9.9
Al -9.021 2.503 18.386
Al -9.021 2.503 -7.072
Al -9.021 2.503 -15.558
Al -9.361 0.083 2.829
Al -9.361 0.083 11.315
Al -9.361 0.083 19.801
Al -9.361 0.083 -5.657
Al -9.361 0.083 -14.143
Al -9.361 0.083 -2.829
Al -9.361 0.083 5.657
Al -9.361 0.083 14.143
Al -9.361 0.083 -11.315
Al -9.361 0.083 22.629
Al -9.064 -2.342 7.072
Al -9.064 -2.342 15.558
Al -9.064 -2.342 -18.386
Al -9.064 -2.342 -1.414
Al -9.064 -2.342 -9.9
Al -9.064 -2.342 1.414
Al -9.064 -2.342 9.9
Al -9.064 -2.342 18.386
Al -9.064 -2.342 -7.072
Al -9.064 -2.342 -15.558
Al -8.149 -4.608 2.829
Al -8.149 -4.608 11.315
Al -8.149 -4.608 19.801
Al -8.149 -4.608 -5.657
Al -8.149 -4.608 -14.143
Al -8.149 -4.608 -2.829
Al -8.149 -4.608 5.657
Al -8.149 -4.608 14.143
Al -8.149 -4.608 -11.315
Al -8.149 -4.608 22.629
Al -6.678 -6.56 7.072
Al -6.678 -6.56 15.558
Al -6.678 -6.56 -18.386
Al -6.678 -6.56 -1.414
Al -6.678 -6.56 -9.9
Al -6.678 -6.56 1.414
Al -6.678 -6.56 9.9
Al -6.678 -6.56 18.386
Al -6.678 -6.56 -7.072
Al -6.678 -6.56 -15.558
Al -4.753 -8.065 2.829
Al -4.753 -8.065 11.315
Al -4.753 -8.065 19.801
Al -4.753 -8.065 -5.657
Al -4.753 -8.065 -14.143
Al -4.753 -8.065 -2.829
Al -4.753 -8.065 5.657
Al -4.753 -8.065 14.143
Al -4.753 -8.065 -11.315
Al -4.753 -8.065 22.629
Al -2.503 -9.021 7.072
Al -2.503 -9.021 15.558
Al -2.503 -9.021 -18.386
Al -2.503 -9.021 -1.414
Al -2.503 -9.021 -9.9
Al -2.503 -9.021 1.414
Al -2.503 -9.021 9.9
Al -2.503 -9.021 18.386
Al -2.503 -9.021 -7.072
Al -2.503 -9.021 -15.558
Al -0.083 -9.361 2.829
Al -0.083 -9.361 11.315
Al -0.083 -9.361 19.801
Al -0.083 -9.361 -5.657
Al -0.083 -9.361 -14.143
Al -0.083 -9.361 -2.829
Al -0.083 -9.361 5.657
Al -0.083 -9.361 14.143
Al -0.083 -9.361 -11.315
Al -0.083 -9.361 22.629
Al 2.342 -9.064 7.072
Al 2.342 -9.064 15.558
Al 2.342 -9.064 -18.386
Al 2.342 -9.064 -1.414
Al 2.342 -9.064 -9.9
Al 2.342 -9.064 1.414
Al 2.342 -9.064 9.9
Al 2.342 -9.064 18.386
Al 2.342 -9.064 -7.072
Al 2.342 -9.064 -15.558
Al 4.608 -8.149 2.829
Al 4.608 -8.149 11.315
Al 4.608 -8.149 19.801
Al 4.608 -8.149 -5.657
Al 4.608 -8.149 -14.143
Al 4.608 -8.149 -2.829
Al 4.608 -8.149 5.657
Al 4.608 -8.149 14.143
Al 4.608 -8.149 -11.315
Al 4.608 -8.149 22.629
Al 6.56 -6.678 7.072
Al 6.56 -6.678 15.558
Al 6.56 -6.678 -18.386
Al 6.56 -6.678 -1.414
Al 6.56 -6.678 -9.9
Al 6.56 -6.678 1.414
Al 6.56 -6.678 9.9
Al 6.56 -6.678 18.386
Al 6.56 -6.678 -7.072
Al 6.56 -6.678 -15.558
Al 8.065 -4.753 2.829
Al 8.065 -4.753 11.315
Al 8.065 -4.753 19.801
Al 8.065 -4.753 -5.657
Al 8.065 -4.753 -14.143
Al 8.065 -4.753 -2.829
Al 8.065 -4.753 5.657
Al 8.065 -4.753 14.143
Al 8.065 -4.753 -11.315
Al 8.065 -4.753 22.629
Al 9.021 -2.503 7.072
Al 9.021 -2.503 15.558
Al 9.021 -2.503 -18.386
Al 9.021 -2.503 -1.414
Al 9.021 -2.503 -9.9
Al 9.021 -2.503 1.414
Al 9.021 -2.503 9.9
Al 9.021 -2.503 18.386
Al 9.021 -2.503 -7.072
Al 9.021 -2.503 -15.558
Hint 5.7 0.392 -0
Hint 5.7 0.392 8.486
Hint 5.7 0.392 16.972
Hint 5.7 0.392 -8.486
Hint 5.7 0.392 -16.972
Hint 5.404 1.854 4.243
Hint 5.404 1.854 12.729
Hint 5.404 1.854 21.215
Hint 5.404 1.854 -4.243
Hint 5.404 1.854 -12.729
Hint 4.74 3.189 -0
Hint 4.74 3.189 8.486
Hint 4.74 3.189 16.972
Hint 4.74 3.189 -8.486
Hint 4.74 3.189 -16.972
Hint 3.753 4.308 4.243
Hint 3.753 4.308 12.729
Hint 3.753 4.308 21.215
Hint 3.753 4.308 -4.243
Hint 3.753 4.308 -12.729
Hint 2.511 5.132 -0
Hint 2.511 5.132 8.486
Hint 2.511 5.132 16.972
Hint 2.511 5.132 -8.486
Hint 2.511 5.132 -16.972
Hint 1.097 5.607 4.243
Hint 1.097 5.607 12.729
Hint 1.097 5.607 21.215
Hint 1.097 5.607 -4.243
Hint 1.097 5.607 -12.729
Hint -0.392 5.7 -0
Hint -0.392 5.7 8.486
Hint -0.392 5.7 16.972
Hint -0.392 5.7 -8.486
Hint -0.392 5.7 -16.972
Hint -1.854 5.404 4.243
Hint -1.854 5.404 12.729
Hint -1.854 5.404 21.215
Hint -1.854 5.404 -4.243
Hint -1.854 5.404 -12.729
Hint -3.189 4.74 -0
Hint -3.189 4.74 8.486
Hint -3.189 4.74 16.972
Hint -3.189 4.74 -8.486
Hint -3.189 4.74 -16.972
Hint -4.308 3.753 4.243
Hint -4.308 3.753 12.729
Hint -4.308 3.753 21.215
Hint -4.308 3.753 -4.243
Hint -4.308 3.753 -12.729
Hint -5.132 2.511 -0
Hint -5.132 2.511 8.486
Hint -5.132 2.511 16.972
Hint -5.132 2.511 -8.486
Hint -5.132 2.511 -16.972
Hint -5.607 1.097 4.243
Hint -5.607 1.097 12.729
Hint -5.607 1.097 21.215
Hint -5.607 1.097 -4.243
Hint -5.607 1.097 -12.729
Hint -5.7 -0.392 -0
Hint -5.7 -0.392 8.486
Hint -5.7 -0.392 16.972
Hint -5.7 -0.392 -8.486
Hint -5.7 -0.392 -16.972
Hint -5.404 -1.854 4.243
Hint -5.404 -1.854 12.729
Hint -5.404 -1.854 21.215
Hint -5.404 -1.854 -4.243
Hint -5.404 -1.854 -12.729
Hint -4.74 -3.189 -0
Hint -4.74 -3.189 8.486
Hint -4.74 -3.189 16.972
Hint -4.74 -3.189 -8.486
Hint -4.74 -3.189 -16.972
Hint -3.753 -4.308 4.243
Hint -3.753 -4.308 12.729
Hint -3.753 -4.308 21.215
Hint -3.753 -4.308 -4.243
Hint -3.753 -4.308 -12.729
Hint -2.511 -5.132 -0
Hint -2.511 -5.132 8.486
Hint -2.511 -5.132 16.972
Hint -2.511 -5.132 -8.486
Hint -2.511 -5.132 -16.972
Hint -1.097 -5.607 4.243
Hint -1.097 -5.607 12.729
Hint -1.097 -5.607 21.215
Hint -1.097 -5.607 -4.243
Hint -1.097 -5.607 -12.729
Hint 0.392 -5.7 -0
Hint 0.392 -5.7 8.486
Hint 0.392 -5.7 16.972
Hint 0.392 -5.7 -8.486
Hint 0.392 -5.7 -16.972
Hint 1.854 -5.404 4.243
Hint 1.854 -5.404 12.729
Hint 1.854 -5.404 21.215
Hint 1.854 -5.404 -4.243
Hint 1.854 -5.404 -12.729
Hint 3.189 -4.74 -0
Hint 3.189 -4.74 8.486
Hint 3.189 -4.74 16.972
Hint 3.189 -4.74 -8.486
Hint 3.189 -4.74 -16.972
Hint 4.308 -3.753 4.243
Hint 4.308 -3.753 12.729
Hint 4.308 -3.753 21.215
Hint 4.308 -3.753 -4.243
Hint 4.308 -3.753 -12.729
Hint 5.132 -2.511 -0
Hint 5.132 -2.511 8.486
Hint 5.132 -2.511 16.972
Hint 5.132 -2.511 -8.486
Hint 5.132 -2.511 -16.972
Hint 5.607 -1.097 4.243
Hint 5.607 -1.097 12.729
Hint 5.607 -1.097 21.215
Hint 5.607 -1.097 -4.243
Hint 5.607 -1.097 -12.729
Hext 8.942 6.609 0
Hext 8.942 6.609 8.486
Hext 8.942 6.609 16.972
Hext 8.942 6.609 -8.486
Hext 8.942 6.609 -16.972
Hext 10.517 -3.618 5.226
Hext 10.517 -3.618 13.713
Hext 10.517 -3.618 22.198
Hext 10.517 -3.618 -3.26
Hext 10.517 -3.618 -11.745
Hext 10.517 -3.618 -5.226
Hext 10.517 -3.618 3.26
Hext 10.517 -3.618 11.745
Hext 10.517 -3.618 -13.713
Hext 10.517 -3.618 20.232
Hext 6.926 8.699 4.243
Hext 6.926 8.699 12.729
Hext 6.926 8.699 21.215
Hext 6.926 8.699 -4.243
Hext 6.926 8.699 -12.729
Hext 11.095 -0.773 9.47
Hext 11.095 -0.773 17.956
Hext 11.095 -0.773 -15.988
Hext 11.095 -0.773 0.984
Hext 11.095 -0.773 -7.503
Hext 11.095 -0.773 -0.984
Hext 11.095 -0.773 7.503
Hext 11.095 -0.773 15.989
Hext 11.095 -0.773 -9.47
Hext 11.095 -0.773 -17.956
Hext 4.439 10.195 0
Hext 4.439 10.195 8.486
Hext 4.439 10.195 16.972
Hext 4.439 10.195 -8.486
Hext 4.439 10.195 -16.972
Hext 10.916 2.125 5.226
Hext 10.916 2.125 13.713
Hext 10.916 2.125 22.198
Hext 10.916 2.125 -3.26
Hext 10.916 2.125 -11.745
Hext 10.916 2.125 -5.226
Hext 10.916 2.125 3.26
Hext 10.916 2.125 11.745
Hext 10.916 2.125 -13.713
Hext 10.916 2.125 20.232
Hext 1.649 10.996 4.243
Hext 1.649 10.996 12.729
Hext 1.649 10.996 21.215
Hext 1.649 10.996 -4.243
Hext 1.649 10.996 -12.729
Hext 9.995 4.878 9.47
Hext 9.995 4.878 17.956
Hext 9.995 4.878 -15.988
Hext 9.995 4.878 0.984
Hext 9.995 4.878 -7.503
Hext 9.995 4.878 -0.984
Hext 9.995 4.878 7.503
Hext 9.995 4.878 15.989
Hext 9.995 4.878 -9.47
Hext 9.995 4.878 -17.956
Hext -1.253 11.049 0
Hext -1.253 11.049 8.486
Hext -1.253 11.049 16.972
Hext -1.253 11.049 -8.486
Hext -1.253 11.049 -16.972
Hext 8.391 7.299 5.226
Hext 8.391 7.299 13.713
Hext 8.391 7.299 22.198
Hext 8.391 7.299 -3.26
Hext 8.391 7.299 -11.745
Hext 8.391 7.299 -5.226
Hext 8.391 7.299 3.26
Hext 8.391 7.299 11.745
Hext 8.391 7.299 -13.713
Hext 8.391 7.299 20.232
Hext -4.07 10.348 4.243
Hext -4.07 10.348 12.729
Hext -4.07 10.348 21.215
Hext -4.07 10.348 -4.243
Hext -4.07 10.348 -12.729
Hext 6.216 9.222 9.47
Hext 6.216 9.222 17.956
Hext 6.216 9.222 -15.988
Hext 6.216 9.222 0.984
Hext 6.216 9.222 -7.503
Hext 6.216 9.222 -0.984
Hext 6.216 9.222 7.503
Hext 6.216 9.222 15.989
Hext 6.216 9.222 -9.47
Hext 6.216 9.222 -17.956
Hext -6.609 8.942 0
Hext -6.609 8.942 8.486
Hext -6.609 8.942 16.972
Hext -6.609 8.942 -8.486
Hext -6.609 8.942 -16.972
Hext 3.618 10.517 5.226
Hext 3.618 10.517 13.713
Hext 3.618 10.517 22.198
Hext 3.618 10.517 -3.26
Hext 3.618 10.517 -11.745
Hext 3.618 10.517 -5.226
Hext 3.618 10.517 3.26
Hext 3.618 10.517 11.745
Hext 3.618 10.517 -13.713
Hext 3.618 10.517 20.232
Hext -8.699 6.926 4.243
Hext -8.699 6.926 12.729
Hext -8.699 6.926 21.215
Hext -8.699 6.926 -4.243
Hext -8.699 6.926 -12.729
Hext 0.773 11.095 9.47
Hext 0.773 11.095 17.956
Hext 0.773 11.095 -15.988
Hext 0.773 11.095 0.984
Hext 0.773 11.095 -7.503
Hext 0.773 11.095 -0.984
Hext 0.773 11.095 7.503
Hext 0.773 11.095 15.989
Hext 0.773 11.095 -9.47
Hext 0.773 11.095 -17.956
Hext -10.195 4.439 0
Hext -10.195 4.439 8.486
Hext -10.195 4.439 16.972
Hext -10.195 4.439 -8.486
Hext -10.195 4.439 -16.972
Hext -2.125 10.916 5.226
Hext -2.125 10.916 13.713
Hext -2.125 10.916 22.198
Hext -2.125 10.916 -3.26
Hext -2.125 10.916 -11.745
Hext -2.125 10.916 -5.226
Hext -2.125 10.916 3.26
Hext -2.125 10.916 11.745
Hext -2.125 10.916 -13.713
Hext -2.125 10.916 20.232
Hext -10.996 1.649 4.243
Hext -10.996 1.649 12.729
Hext -10.996 1.649 21.215
Hext -10.996 1.649 -4.243
Hext -10.996 1.649 -12.729
Hext -4.878 9.995 9.47
Hext -4.878 9.995 17.956
Hext -4.878 9.995 -15.988
Hext -4.878 9.995 0.984
Hext -4.878 9.995 -7.503
Hext -4.878 9.995 -0.984
Hext -4.878 9.995 7.503
Hext -4.878 9.995 15.989
Hext -4.878 9.995 -9.47
Hext -4.878 9.995 -17.956
Hext -11.049 -1.253 0
Hext -11.049 -1.253 8.486
Hext -11.049 -1.253 16.972
Hext -11.049 -1.253 -8.486
Hext -11.049 -1.253 -16.972
Hext -7.299 8.391 5.226
Hext -7.299 8.391 13.713
Hext -7.299 8.391 22.198
Hext -7.299 8.391 -3.26
Hext -7.299 8.391 -11.745
Hext -7.299 8.391 -5.226
Hext -7.299 8.391 3.26
Hext -7.299 8.391 11.745
Hext -7.299 8.391 -13.713
Hext -7.299 8.391 20.232
Hext -10.348 -4.07 4.243
Hext -10.348 -4.07 12.729
Hext -10.348 -4.07 21.215
Hext -10.348 -4.07 -4.243
Hext -10.348 -4.07 -12.729
Hext -9.222 6.216 9.47
Hext -9.222 6.216 17.956
Hext -9.222 6.216 -15.988
Hext -9.222 6.216 0.984
Hext -9.222 6.216 -7.503
Hext -9.222 6.216 -0.984
Hext -9.222 6.216 7.503
Hext -9.222 6.216 15.989
Hext -9.222 6.216 -9.47
Hext -9.222 6.216 -17.956
Hext -8.942 -6.609 0
Hext -8.942 -6.609 8.486
Hext -8.942 -6.609 16.972
Hext -8.942 -6.609 -8.486
Hext -8.942 -6.609 -16.972
Hext -10.517 3.618 5.226
Hext -10.517 3.618 13.713
Hext -10.517 3.618 22.198
Hext -10.517 3.618 -3.26
Hext -10.517 3.618 -11.745
Hext -10.517 3.618 -5.226
Hext -10.517 3.618 3.26
Hext -10.517 3.618 11.745
Hext -10.517 3.618 -13.713
Hext -10.517 3.618 20.232
Hext -6.926 -8.699 4.243
Hext -6.926 -8.699 12.729
Hext -6.926 -8.699 21.215
Hext -6.926 -8.699 -4.243
Hext -6.926 -8.699 -12.729
Hext -11.095 0.773 9.47
Hext -11.095 0.773 17.956
Hext -11.095 0.773 -15.988
Hext -11.095 0.773 0.984
Hext -11.095 0.773 -7.503
Hext -11.095 0.773 -0.984
Hext -11.095 0.773 7.503
Hext -11.095 0.773 15.989
Hext -11.095 0.773 -9.47
Hext -11.095 0.773 -17.956
Hext -4.439 -10.195 0
Hext -4.439 -10.195 8.486
Hext -4.439 -10.195 16.972
Hext -4.439 -10.195 -8.486
Hext -4.439 -10.195 -16.972
Hext -10.916 -2.125 5.226
Hext -10.916 -2.125 13.713
Hext -10.916 -2.125 22.198
Hext -10.916 -2.125 -3.26
Hext -10.916 -2.125 -11.745
Hext -10.916 -2.125 -5.226
Hext -10.916 -2.125 3.26
Hext -10.916 -2.125 11.745
Hext -10.916 -2.125 -13.713
Hext -10.916 -2.125 20.232
Hext -1.649 -10.996 4.243
Hext -1.649 -10.996 12.729
Hext -1.649 -10.996 21.215
Hext -1.649 -10.996 -4.243
Hext -1.649 -10.996 -12.729
Hext -9.995 -4.878 9.47
Hext -9.995 -4.878 17.956
Hext -9.995 -4.878 -15.988
Hext -9.995 -4.878 0.984
Hext -9.995 -4.878 -7.503
Hext -9.995 -4.878 -0.984
Hext -9.995 -4.878 7.503
Hext -9.995 -4.878 15.989
Hext -9.995 -4.878 -9.47
Hext -9.995 -4.878 -17.956
Hext 1.253 -11.049 0
Hext 1.253 -11.049 8.486
Hext 1.253 -11.049 16.972
Hext 1.253 -11.049 -8.486
Hext 1.253 -11.049 -16.972
Hext -8.391 -7.299 5.226
Hext -8.391 -7.299 13.713
Hext -8.391 -7.299 22.198
Hext -8.391 -7.299 -3.26
Hext -8.391 -7.299 -11.745
Hext -8.391 -7.299 -5.226
Hext -8.391 -7.299 3.26
Hext -8.391 -7.299 11.745
Hext -8.391 -7.299 -13.713
Hext -8.391 -7.299 20.232
Hext 4.07 -10.348 4.243
Hext 4.07 -10.348 12.729
Hext 4.07 -10.348 21.215
Hext 4.07 -10.348 -4.243
Hext 4.07 -10.348 -12.729
Hext -6.216 -9.222 9.47
Hext -6.216 -9.222 17.956
Hext -6.216 -9.222 -15.988
Hext -6.216 -9.222 0.984
Hext -6.216 -9.222 -7.503
Hext -6.216 -9.222 -0.984
Hext -6.216 -9.222 7.503
Hext -6.216 -9.222 15.989
Hext -6.216 -9.222 -9.47
Hext -6.216 -9.222 -17.956
Hext 6.609 -8.942 0
Hext 6.609 -8.942 8.486
Hext 6.609 -8.942 16.972
Hext 6.609 -8.942 -8.486
Hext 6.609 -8.942 -16.972
Hext -3.618 -10.517 5.226
Hext -3.618 -10.517 13.713
Hext -3.618 -10.517 22.198
Hext -3.618 -10.517 -3.26
Hext -3.618 -10.517 -11.745
Hext -3.618 -10.517 -5.226
Hext -3.618 -10.517 3.26
Hext -3.618 -10.517 11.745
Hext -3.618 -10.517 -13.713
Hext -3.618 -10.517 20.232
Hext 8.699 -6.926 4.243
Hext 8.699 -6.926 12.729
Hext 8.699 -6.926 21.215
Hext 8.699 -6.926 -4.243
Hext 8.699 -6.926 -12.729
Hext -0.773 -11.095 9.47
Hext -0.773 -11.095 17.956
Hext -0.773 -11.095 -15.988
Hext -0.773 -11.095 0.984
Hext -0.773 -11.095 -7.503
Hext -0.773 -11.095 -0.984
Hext -0.773 -11.095 7.503
Hext -0.773 -11.095 15.989
Hext -0.773 -11.095 -9.47
Hext -0.773 -11.095 -17.956
Hext 10.195 -4.439 0
Hext 10.195 -4.439 8.486
Hext 10.195 -4.439 16.972
Hext 10.195 -4.439 -8.486
Hext 10.195 -4.439 -16.972
Hext 2.125 -10.916 5.226
Hext 2.125 -10.916 13.713
Hext 2.125 -10.916 22.198
Hext 2.125 -10.916 -3.26
Hext 2.125 -10.916 -11.745
Hext 2.125 -10.916 -5.226
Hext 2.125 -10.916 3.26
Hext 2.125 -10.916 11.745
Hext 2.125 -10.916 -13.713
Hext 2.125 -10.916 20.232
Hext 10.996 -1.649 4.243
Hext 10.996 -1.649 12.729
Hext 10.996 -1.649 21.215
Hext 10.996 -1.649 -4.243
Hext 10.996 -1.649 -12.729
Hext 4.878 -9.995 9.47
Hext 4.878 -9.995 17.956
Hext 4.878 -9.995 -15.988
Hext 4.878 -9.995 0.984
Hext 4.878 -9.995 -7.503
Hext 4.878 -9.995 -0.984
Hext 4.878 -9.995 7.503
Hext 4.878 -9.995 15.989
Hext 4.878 -9.995 -9.47
Hext 4.878 -9.995 -17.956
Hext 11.049 1.253 0
Hext 11.049 1.253 8.486
Hext 11.049 1.253 16.972
Hext 11.049 1.253 -8.486
Hext 11.049 1.253 -16.972
Hext 7.299 -8.391 5.226
Hext 7.299 -8.391 13.713
Hext 7.299 -8.391 22.198
Hext 7.299 -8.391 -3.26
Hext 7.299 -8.391 -11.745
Hext 7.299 -8.391 -5.226
Hext 7.299 -8.391 3.26
Hext 7.299 -8.391 11.745
Hext 7.299 -8.391 -13.713
Hext 7.299 -8.391 20.232
Hext 10.348 4.07 4.243
Hext 10.348 4.07 12.729
Hext 10.348 4.07 21.215
Hext 10.348 4.07 -4.243
Hext 10.348 4.07 -12.729
Hext 9.222 -6.216 9.47
Hext 9.222 -6.216 17.956
Hext 9.222 -6.216 -15.988
Hext 9.222 -6.216 0.984
Hext 9.222 -6.216 -7.503
Hext 9.222 -6.216 -0.984
Hext 9.222 -6.216 7.503
Hext 9.222 -6.216 15.989
Hext 9.222 -6.216 -9.47
Hext 9.222 -6.216 -17.956
Oint 6.212 -0.127 0
Oint 6.212 -0.127 8.486
Oint 6.212 -0.127 16.972
Oint 6.212 -0.127 -8.486
Oint 6.212 -0.127 -16.972
Oint 6.033 1.486 4.243
Oint 6.033 1.486 12.729
Oint 6.033 1.486 21.215
Oint 6.033 1.486 -4.243
Oint 6.033 1.486 -12.729
Oint 5.443 2.997 0
Oint 5.443 2.997 8.486
Oint 5.443 2.997 16.972
Oint 5.443 2.997 -8.486
Oint 5.443 2.997 -16.972
Oint 4.482 4.303 4.243
Oint 4.482 4.303 12.729
Oint 4.482 4.303 21.215
Oint 4.482 4.303 -4.243
Oint 4.482 4.303 -12.729
Oint 3.216 5.317 0
Oint 3.216 5.317 8.486
Oint 3.216 5.317 16.972
Oint 3.216 5.317 -8.486
Oint 3.216 5.317 -16.972
Oint 1.73 5.968 4.243
Oint 1.73 5.968 12.729
Oint 1.73 5.968 21.215
Oint 1.73 5.968 -4.243
Oint 1.73 5.968 -12.729
Oint 0.127 6.212 0
Oint 0.127 6.212 8.486
Oint 0.127 6.212 16.972
Oint 0.127 6.212 -8.486
Oint 0.127 6.212 -16.972
Oint -1.486 6.033 4.243
Oint -1.486 6.033 12.729
Oint -1.486 6.033 21.215
Oint -1.486 6.033 -4.243
Oint -1.486 6.033 -12.729
Oint -2.997 5.443 0
Oint -2.997 5.443 8.486
Oint -2.997 5.443 16.972
Oint -2.997 5.443 -8.486
Oint -2.997 5.443 -16.972
Oint -4.303 4.482 4.243
Oint -4.303 4.482 12.729
Oint -4.303 4.482 21.215
Oint -4.303 4.482 -4.243
Oint -4.303 4.482 -12.729
Oint -5.317 3.216 0
Oint -5.317 3.216 8.486
Oint -5.317 3.216 16.972
Oint -5.317 3.216 -8.486
Oint -5.317 3.216 -16.972
Oint -5.968 1.73 4.243
Oint -5.968 1.73 12.729
Oint -5.968 1.73 21.215
Oint -5.968 1.73 -4.243
Oint -5.968 1.73 -12.729
Oint -6.212 0.127 0
Oint -6.212 0.127 8.486
Oint -6.212 0.127 16.972
Oint -6.212 0.127 -8.486
Oint -6.212 0.127 -16.972
Oint -6.033 -1.486 4.243
Oint -6.033 -1.486 12.729
Oint -6.033 -1.486 21.215
Oint -6.033 -1.486 -4.243
Oint -6.033 -1.486 -12.729
Oint -5.443 -2.997 0
Oint -5.443 -2.997 8.486
Oint -5.443 -2.997 16.972
Oint -5.443 -2.997 -8.486
Oint -5.443 -2.997 -16.972
Oint -4.482 -4.303 4.243
Oint -4.482 -4.303 12.729
Oint -4.482 -4.303 21.215
Oint -4.482 -4.303 -4.243
Oint -4.482 -4.303 -12.729
Oint -3.216 -5.317 0
Oint -3.216 -5.317 8.486
Oint -3.216 -5.317 16.972
Oint -3.216 -5.317 -8.486
Oint -3.216 -5.317 -16.972
Oint -1.73 -5.968 4.243
Oint -1.73 -5.968 12.729
Oint -1.73 -5.968 21.215
Oint -1.73 -5.968 -4.243
Oint -1.73 -5.968 -12.729
Oint -0.127 -6.212 0
Oint -0.127 -6.212 8.486
Oint -0.127 -6.212 16.972
Oint -0.127 -6.212 -8.486
Oint -0.127 -6.212 -16.972
Oint 1.486 -6.033 4.243
Oint 1.486 -6.033 12.729
Oint 1.486 -6.033 21.215
Oint 1.486 -6.033 -4.243
Oint 1.486 -6.033 -12.729
Oint 2.997 -5.443 0
Oint 2.997 -5.443 8.486
Oint 2.997 -5.443 16.972
Oint 2.997 -5.443 -8.486
Oint 2.997 -5.443 -16.972
Oint 4.303 -4.482 4.243
Oint 4.303 -4.482 12.729
Oint 4.303 -4.482 21.215
Oint 4.303 -4.482 -4.243
Oint 4.303 -4.482 -12.729
Oint 5.317 -3.216 0
Oint 5.317 -3.216 8.486
Oint 5.317 -3.216 16.972
Oint 5.317 -3.216 -8.486
Oint 5.317 -3.216 -16.972
Oint 5.968 -1.73 4.243
Oint 5.968 -1.73 12.729
Oint 5.968 -1.73 21.215
Oint 5.968 -1.73 -4.243
Oint 5.968 -1.73 -12.729
Obr 8.251 -1.486 0
Obr 8.251 -1.486 8.486
Obr 8.251 -1.486 16.972
Obr 8.251 -1.486 -8.486
Obr 8.251 -1.486 -16.972
Obr 8.369 0.634 1.363
Obr 8.369 0.634 9.849
Obr 8.369 0.634 18.335
Obr 8.369 0.634 -7.123
Obr 8.369 0.634 -15.609
Obr 8.369 0.634 -1.363
Obr 8.369 0.634 7.123
Obr 8.369 0.634 15.609
Obr 8.369 0.634 -9.849
Obr 8.369 0.634 -18.335
Obr 8.354 0.7 4.243
Obr 8.354 0.7 12.729
Obr 8.354 0.7 21.215
Obr 8.354 0.7 -4.243
Obr 8.354 0.7 -12.729
Obr 7.92 2.779 5.606
Obr 7.92 2.779 14.092
Obr 7.92 2.779 22.578
Obr 7.92 2.779 -2.88
Obr 7.92 2.779 -11.366
Obr 7.92 2.779 2.88
Obr 7.92 2.779 11.366
Obr 7.92 2.779 19.852
Obr 7.92 2.779 -5.606
Obr 7.92 2.779 -14.092
Obr 7.888 2.838 0
Obr 7.888 2.838 8.486
Obr 7.888 2.838 16.972
Obr 7.888 2.838 -8.486
Obr 7.888 2.838 -16.972
Obr 6.931 4.734 1.363
Obr 6.931 4.734 9.849
Obr 6.931 4.734 18.335
Obr 6.931 4.734 -7.123
Obr 6.931 4.734 -15.609
Obr 6.931 4.734 -1.363
Obr 6.931 4.734 7.123
Obr 6.931 4.734 15.609
Obr 6.931 4.734 -9.849
Obr 6.931 4.734 -18.335
Obr 6.885 4.783 4.243
Obr 6.885 4.783 12.729
Obr 6.885 4.783 21.215
Obr 6.885 4.783 -4.243
Obr 6.885 4.783 -12.729
Obr 5.47 6.366 5.606
Obr 5.47 6.366 14.092
Obr 5.47 6.366 22.578
Obr 5.47 6.366 -2.88
Obr 5.47 6.366 -11.366
Obr 5.47 6.366 2.88
Obr 5.47 6.366 11.366
Obr 5.47 6.366 19.852
Obr 5.47 6.366 -5.606
Obr 5.47 6.366 -14.092
Obr 5.412 6.402 0
Obr 5.412 6.402 8.486
Obr 5.412 6.402 16.972
Obr 5.412 6.402 -8.486
Obr 5.412 6.402 -16.972
Obr 3.636 7.565 1.363
Obr 3.636 7.565 9.849
Obr 3.636 7.565 18.335
Obr 3.636 7.565 -7.123
Obr 3.636 7.565 -15.609
Obr 3.636 7.565 -1.363
Obr 3.636 7.565 7.123
Obr 3.636 7.565 15.609
Obr 3.636 7.565 -9.849
Obr 3.636 7.565 -18.335
Obr 3.571 7.585 4.243
Obr 3.571 7.585 12.729
Obr 3.571 7.585 21.215
Obr 3.571 7.585 -4.243
Obr 3.571 7.585 -12.729
Obr 1.554 8.248 5.606
Obr 1.554 8.248 14.092
Obr 1.554 8.248 22.578
Obr 1.554 8.248 -2.88
Obr 1.554 8.248 -11.366
Obr 1.554 8.248 2.88
Obr 1.554 8.248 11.366
Obr 1.554 8.248 19.852
Obr 1.554 8.248 -5.606
Obr 1.554 8.248 -14.092
Obr 1.486 8.251 0
Obr 1.486 8.251 8.486
Obr 1.486 8.251 16.972
Obr 1.486 8.251 -8.486
Obr 1.486 8.251 -16.972
Obr -0.634 8.369 1.363
Obr -0.634 8.369 9.849
Obr -0.634 8.369 18.335
Obr -0.634 8.369 -7.123
Obr -0.634 8.369 -15.609
Obr -0.634 8.369 -1.363
Obr -0.634 8.369 7.123
Obr -0.634 8.369 15.609
Obr -0.634 8.369 -9.849
Obr -0.634 8.369 -18.335
Obr -0.7 8.354 4.243
Obr -0.7 8.354 12.729
Obr -0.7 8.354 21.215
Obr -0.7 8.354 -4.243
Obr -0.7 8.354 -12.729
Obr -2.779 7.92 5.606
Obr -2.779 7.92 14.092
Obr -2.779 7.92 22.578
Obr -2.779 7.92 -2.88
Obr -2.779 7.92 -11.366
Obr -2.779 7.92 2.88
Obr -2.779 7.92 11.366
Obr -2.779 7.92 19.852
Obr -2.779 7.92 -5.606
Obr -2.779 7.92 -14.092
Obr -2.838 7.888 0
Obr -2.838 7.888 8.486
Obr -2.838 7.888 16.972
Obr -2.838 7.888 -8.486
Obr -2.838 7.888 -16.972
Obr -4.734 6.931 1.363
Obr -4.734 6.931 9.849
Obr -4.734 6.931 18.335
Obr -4.734 6.931 -7.123
Obr -4.734 6.931 -15.609
Obr -4.734 6.931 -1.363
Obr -4.734 6.931 7.123
Obr -4.734 6.931 15.609
Obr -4.734 6.931 -9.849
Obr -4.734 6.931 -18.335
Obr -4.783 6.885 4.243
Obr -4.783 6.885 12.729
Obr -4.783 6.885 21.215
Obr -4.783 6.885 -4.243
Obr -4.783 6.885 -12.729
Obr -6.366 5.47 5.606
Obr -6.366 5.47 14.092
Obr -6.366 5.47 22.578
Obr -6.366 5.47 -2.88
Obr -6.366 5.47 -11.366
Obr -6.366 5.47 2.88
Obr -6.366 5.47 11.366
Obr -6.366 5.47 19.852
Obr -6.366 5.47 -5.606
Obr -6.366 5.47 -14.092
Obr -6.402 5.412 0
Obr -6.402 5.412 8.486
Obr -6.402 5.412 16.972
Obr -6.402 5.412 -8.486
Obr -6.402 5.412 -16.972
Obr -7.565 3.636 1.363
Obr -7.565 3.636 9.849
Obr -7.565 3.636 18.335
Obr -7.565 3.636 -7.123
Obr -7.565 3.636 -15.609
Obr -7.565 3.636 -1.363
Obr -7.565 3.636 7.123
Obr -7.565 3.636 15.609
Obr -7.565 3.636 -9.849
Obr -7.565 3.636 -18.335
Obr -7.585 3.571 4.243
Obr -7.585 3.571 12.729
Obr -7.585 3.571 21.215
Obr -7.585 3.571 -4.243
Obr -7.585 3.571 -12.729
Obr -8.248 1.554 5.606
Obr -8.248 1.554 14.092
Obr -8.248 1.554 22.578
Obr -8.248 1.554 -2.88
Obr -8.248 1.554 -11.366
Obr -8.248 1.554 2.88
Obr -8.248 1.554 11.366
Obr -8.248 1.554 19.852
Obr -8.248 1.554 -5.606
Obr -8.248 1.554 -14.092
Obr -8.251 1.486 0
Obr -8.251 1.486 8.486
Obr -8.251 1.486 16.972
Obr -8.251 1.486 -8.486
Obr -8.251 1.486 -16.972
Obr -8.369 -0.634 1.363
Obr -8.369 -0.634 9.849
Obr -8.369 -0.634 18.335
Obr -8.369 -0.634 -7.123
Obr -8.369 -0.634 -15.609
Obr -8.369 -0.634 -1.363
Obr -8.369 -0.634 7.123
Obr -8.369 -0.634 15.609
Obr -8.369 -0.634 -9.849
Obr -8.369 -0.634 -18.335
Obr -8.354 -0.7 4.243
Obr -8.354 -0.7 12.729
Obr -8.354 -0.7 21.215
Obr -8.354 -0.7 -4.243
Obr -8.354 -0.7 -12.729
Obr -7.92 -2.779 5.606
Obr -7.92 -2.779 14.092
Obr -7.92 -2.779 22.578
Obr -7.92 -2.779 -2.88
Obr -7.92 -2.779 -11.366
Obr -7.92 -2.779 2.88
Obr -7.92 -2.779 11.366
Obr -7.92 -2.779 19.852
Obr -7.92 -2.779 -5.606
Obr -7.92 -2.779 -14.092
Obr -7.888 -2.838 0
Obr -7.888 -2.838 8.486
Obr -7.888 -2.838 16.972
Obr -7.888 -2.838 -8.486
Obr -7.888 -2.838 -16.972
Obr -6.931 -4.734 1.363
Obr -6.931 -4.734 9.849
Obr -6.931 -4.734 18.335
Obr -6.931 -4.734 -7.123
Obr -6.931 -4.734 -15.609
Obr -6.931 -4.734 -1.363
Obr -6.931 -4.734 7.123
Obr -6.931 -4.734 15.609
Obr -6.931 -4.734 -9.849
Obr -6.931 -4.734 -18.335
Obr -6.885 -4.783 4.243
Obr -6.885 -4.783 12.729
Obr -6.885 -4.783 21.215
Obr -6.885 -4.783 -4.243
Obr -6.885 -4.783 -12.729
Obr -5.47 -6.366 5.606
Obr -5.47 -6.366 14.092
Obr -5.47 -6.366 22.578
Obr -5.47 -6.366 -2.88
Obr -5.47 -6.366 -11.366
Obr -5.47 -6.366 2.88
Obr -5.47 -6.366 11.366
Obr -5.47 -6.366 19.852
Obr -5.47 -6.366 -5.606
Obr -5.47 -6.366 -14.092
Obr -5.412 -6.402 0
Obr -5.412 -6.402 8.486
Obr -5.412 -6.402 16.972
Obr -5.412 -6.402 -8.486
Obr -5.412 -6.402 -16.972
Obr -3.636 -7.565 1.363
Obr -3.636 -7.565 9.849
Obr -3.636 -7.565 18.335
Obr -3.636 -7.565 -7.123
Obr -3.636 -7.565 -15.609
Obr -3.636 -7.565 -1.363
Obr -3.636 -7.565 7.123
Obr -3.636 -7.565 15.609
Obr -3.636 -7.565 -9.849
Obr -3.636 -7.565 -18.335
Obr -3.571 -7.585 4.243
Obr -3.571 -7.585 12.729
Obr -3.571 -7.585 21.215
Obr -3.571 -7.585 -4.243
Obr -3.571 -7.585 -12.729
Obr -1.554 -8.248 5.606
Obr -1.554 -8.248 14.092
Obr -1.554 -8.248 22.578
Obr -1.554 -8.248 -2.88
Obr -1.554 -8.248 -11.366
Obr -1.554 -8.248 2.88
Obr -1.554 -8.248 11.366
Obr -1.554 -8.248 19.852
Obr -1.554 -8.248 -5.606
Obr -1.554 -8.248 -14.092
Obr -1.486 -8.251 0
Obr -1.486 -8.251 8.486
Obr -1.486 -8.251 16.972
Obr -1.486 -8.251 -8.486
Obr -1.486 -8.251 -16.972
Obr 0.634 -8.369 1.363
Obr 0.634 -8.369 9.849
Obr 0.634 -8.369 18.335
Obr 0.634 -8.369 -7.123
Obr 0.634 -8.369 -15.609
Obr 0.634 -8.369 -1.363
Obr 0.634 -8.369 7.123
Obr 0.634 -8.369 15.609
Obr 0.634 -8.369 -9.849
Obr 0.634 -8.369 -18.335
Obr 0.7 -8.354 4.243
Obr 0.7 -8.354 12.729
Obr 0.7 -8.354 21.215
Obr 0.7 -8.354 -4.243
Obr 0.7 -8.354 -12.729
Obr 2.779 -7.92 5.606
Obr 2.779 -7.92 14.092
Obr 2.779 -7.92 22.578
Obr 2.779 -7.92 -2.88
Obr 2.779 -7.92 -11.366
Obr 2.779 -7.92 2.88
Obr 2.779 -7.92 11.366
Obr 2.779 -7.92 19.852
Obr 2.779 -7.92 -5.606
Obr 2.779 -7.92 -14.092
Obr 2.838 -7.888 0
Obr 2.838 -7.888 8.486
Obr 2.838 -7.888 16.972
Obr 2.838 -7.888 -8.486
Obr 2.838 -7.888 -16.972
Obr 4.734 -6.931 1.363
Obr 4.734 -6.931 9.849
Obr 4.734 -6.931 18.335
Obr 4.734 -6.931 -7.123
Obr 4.734 -6.931 -15.609
Obr 4.734 -6.931 -1.363
Obr 4.734 -6.931 7.123
Obr 4.734 -6.931 15.609
Obr 4.734 -6.931 -9.849
Obr 4.734 -6.931 -18.335
Obr 4.783 -6.885 4.243
Obr 4.783 -6.885 12.729
Obr 4.783 -6.885 21.215
Obr 4.783 -6.885 -4.243
Obr 4.783 -6.885 -12.729
Obr 6.366 -5.47 5.606
Obr 6.366 -5.47 14.092
Obr 6.366 -5.47 22.578
Obr 6.366 -5.47 -2.88
Obr 6.366 -5.47 -11.366
Obr 6.366 -5.47 2.88
Obr 6.366 -5.47 11.366
Obr 6.366 -5.47 19.852
Obr 6.366 -5.47 -5.606
Obr 6.366 -5.47 -14.092
Obr 6.402 -5.412 0
Obr 6.402 -5.412 8.486
Obr 6.402 -5.412 16.972
Obr 6.402 -5.412 -8.486
Obr 6.402 -5.412 -16.972
Obr 7.565 -3.636 1.363
Obr 7.565 -3.636 9.849
Obr 7.565 -3.636 18.335
Obr 7.565 -3.636 -7.123
Obr 7.565 -3.636 -15.609
Obr 7.565 -3.636 -1.363
Obr 7.565 -3.636 7.123
Obr 7.565 -3.636 15.609
Obr 7.565 -3.636 -9.849
Obr 7.565 -3.636 -18.335
Obr 7.585 -3.571 4.243
Obr 7.585 -3.571 12.729
Obr 7.585 -3.571 21.215
Obr 7.585 -3.571 -4.243
Obr 7.585 -3.571 -12.729
Obr 8.248 -1.554 5.606
Obr 8.248 -1.554 14.092
Obr 8.248 -1.554 22.578
Obr 8.248 -1.554 -2.88
Obr 8.248 -1.554 -11.366
Obr 8.248 -1.554 2.88
Obr 8.248 -1.554 11.366
Obr 8.248 -1.554 19.852
Obr 8.248 -1.554 -5.606
Obr 8.248 -1.554 -14.092
Oext 10.306 2.038 -0
Oext 10.306 2.038 8.486
Oext 10.306 2.038 16.972
Oext 10.306 2.038 -8.486
Oext 10.306 2.038 -16.972
Oext 10.439 -1.159 1.65
Oext 10.439 -1.159 10.136
Oext 10.439 -1.159 18.622
Oext 10.439 -1.159 -6.836
Oext 10.439 -1.159 -15.322
Oext 10.439 -1.159 -1.65
Oext 10.439 -1.159 6.836
Oext 10.439 -1.159 15.322
Oext 10.439 -1.159 -10.136
Oext 10.439 -1.159 -18.622
Oext 9.427 4.636 4.243
Oext 9.427 4.636 12.729
Oext 9.427 4.636 21.215
Oext 9.427 4.636 -4.243
Oext 9.427 4.636 -12.729
Oext 10.383 1.582 5.893
Oext 10.383 1.582 14.379
Oext 10.383 1.582 22.865
Oext 10.383 1.582 -2.593
Oext 10.383 1.582 -11.079
Oext 10.383 1.582 2.593
Oext 10.383 1.582 11.079
Oext 10.383 1.582 19.565
Oext 10.383 1.582 -5.893
Oext 10.383 1.582 -14.379
Oext 7.906 6.918 -0
Oext 7.906 6.918 8.486
Oext 7.906 6.918 16.972
Oext 7.906 6.918 -8.486
Oext 7.906 6.918 -16.972
Oext 9.62 4.216 1.65
Oext 9.62 4.216 10.136
Oext 9.62 4.216 18.622
Oext 9.62 4.216 -6.836
Oext 9.62 4.216 -15.322
Oext 9.62 4.216 -1.65
Oext 9.62 4.216 6.836
Oext 9.62 4.216 15.322
Oext 9.62 4.216 -10.136
Oext 9.62 4.216 -18.622
Oext 5.846 8.729 4.243
Oext 5.846 8.729 12.729
Oext 5.846 8.729 21.215
Oext 5.846 8.729 -4.243
Oext 5.846 8.729 -12.729
Oext 8.201 6.562 5.893