 # File generated with Atomsk by nicolas on 2022-04-20 15:59:26
 
         272  atoms
           4  atom types
 
      0.000000000000      15.423100000000  xlo xhi
      0.000000000000      15.404200000000  ylo yhi
      0.000000000000      18.437900000000  zlo zhi
 
Masses
 
            1   12.01100000             # C
            2   1.00800000              # H
            3   14.00700000             # N
            4   65.38000000             # Zn
 
Atoms # atomic
 
         1    1       16.967291680000      11.038745780000      28.855334560000
         2    2       16.189566110000      11.732092170000      28.457982700000
         3    1       17.664426900000       9.176704700000      29.800675770000
         4    2       17.760778070000       8.163509440000      30.285978900000
         5    1       18.744936420000       9.856962020000      29.222874730000
         6    2        4.409055790000       9.528899110000      29.176270730000
         7    1       14.828177380000       7.474994900000      27.947062680000
         8    2       15.666460690000       8.079673330000      27.609275360000
         9    1       13.642078980000      12.480195910000      29.784617890000
        10    2       14.307503530000      12.843926270000      30.551977140000
        11    1       12.731067930000      11.002917110000      28.419416460000
        12    2       12.392891900000      10.028478890000      28.031344310000
        13    1        5.600893910000      12.279477320000      30.282463630000
        14    2        5.018980820000      11.356228210000      30.455308460000
        15    1        4.936666750000      12.844372620000      25.078242970000
        16    2        4.793076260000      13.932804470000      25.046283910000
        17    1       17.739105650000      14.629627240000      28.989425830000
        18    2       18.268799730000      14.626279240000      29.908819680000
        19    1       17.183139190000      14.400660660000      26.884524600000
        20    2       17.245154930000      14.003590180000      25.879097770000
        21    1       14.723774240000       8.118217560000      14.411088150000
        22    2       15.728043070000       7.723923670000      14.262236680000
        23    1        6.336381970000      14.065355200000      29.339282530000
        24    2        6.299955900000      14.736126560000      28.481858070000
        25    3       16.554685530000      10.004864190000      29.614980870000
        26    3       18.276743460000      10.974223970000      28.607440950000
        27    3       14.150444100000       9.102115070000      13.587070290000
        28    3       14.260928240000       7.819459300000      29.156817430000
        29    3       13.580674320000      11.111397930000      29.488617120000
        30    3        5.453874890000      13.016630770000      29.164590130000
        31    3        4.582803380000      11.926750700000      26.072905180000
        32    3       18.072362690000      14.019000200000      27.836175410000
        33    4       14.670898710000       9.587632780000      30.134793980000
        34    4        4.010500560000      12.482660290000      27.962956580000
        35    1       13.969800140000       2.795375950000      19.534269000000
        36    2       14.688472090000       2.012561790000      19.121959830000
        37    1       13.315651690000       4.535919490000      20.730519400000
        38    2       13.392103200000       5.383828030000      21.367044600000
        39    1       12.200068500000       4.011393540000      20.130268160000
        40    2       11.167692210000       4.374252450000      20.205753670000
        41    1       16.487607570000       6.172227060000      18.020211960000
        42    2       15.837582370000       5.477201150000      17.411280500000
        43    1       17.251294410000       1.405626600000      20.269786520000
        44    2       16.823726570000       1.133916980000      21.253125330000
        45    1       18.043620310000       2.719871460000      18.625027350000
        46    2       18.438352070000       3.629716500000      18.120825990000
        47    1        9.924723880000       1.698086690000      21.431802910000
        48    2       10.863125470000       1.805926970000      21.997450980000
        49    1       10.479557140000       0.639215340000      15.960558880000
        50    2       10.963717180000      -0.384422450000      15.960457090000
        51    1       13.042829210000      -0.912356790000      20.274401590000
        52    2       12.545909610000      -0.774140940000      21.288786710000
        53    1       13.255544350000      -0.858410720000      18.098110130000
        54    2       12.908188320000      -0.658959110000      17.073545420000
        55    1       15.699953590000       5.717577130000      23.089158380000
        56    2       14.744451770000       5.948213430000      22.658558680000
        57    1        8.611292400000       1.265541950000      19.783788110000
        58    2        8.248470900000       0.923710940000      18.798089890000
        59    3       14.407238820000       3.772746860000      20.428584500000
        60    3       12.647732460000       2.910259600000      19.360290240000
        61    3       16.550055740000       4.982305680000      22.327055010000
        62    3       16.876301990000       5.810111840000      19.301132280000
        63    3       17.441121390000       2.766647590000      19.836527970000
        64    3        9.900264300000       1.309471160000      20.085989460000
        65    3       10.693582260000       1.553891800000      16.997249200000
        66    3       12.539889270000      -0.360648440000      19.163497880000
        67    4       16.236966850000       4.411088050000      20.421920890000
        68    4       11.544222700000       1.374051180000      18.896410830000
        69    1        6.016580580000       3.219089670000      24.761462100000
        70    2        6.700437530000       4.053427140000      25.030570230000
        71    1        5.215431220000       1.361734540000      23.908463180000
        72    2        5.321218780000       0.399561260000      23.309498110000
        73    1        4.146438890000       2.162006880000      24.321661800000
        74    2       18.491975700000       1.979959050000      24.107699250000
        75    1        8.338394020000      -0.059400720000      26.247447140000
        76    2        7.337234350000       0.376185830000      26.427954620000
        77    1        9.196023090000       4.548626150000      24.511351630000
        78    2        8.503935560000       4.841537370000      23.683505210000
        79    1       10.358851640000       3.237354890000      25.823647910000
        80    2       10.587633360000       2.320493140000      26.459861070000
        81    1       17.618071440000       4.787540980000      23.143126500000
        82    2       18.526932120000       4.234178850000      22.896634800000
        83    1       17.693637600000       5.380240400000      28.246832750000
        84    2       17.916728450000       6.432648970000      28.026049250000
        85    1        5.514456260000       6.848144320000      24.590190090000
        86    2        5.244230040000       6.716807670000      23.541011990000
        87    1        5.554529780000       6.762192210000      26.752683990000
        88    2        5.258859210000       6.474058110000      27.787152180000
        89    1        7.783332060000       1.506965410000      20.935170850000
        90    2        6.717794660000       1.241942600000      21.146755180000
        91    1       16.208949930000       5.879596380000      24.355928830000
        92    2       15.774952280000       6.447468780000      25.251609280000
        93    3        6.377157720000       2.022850040000      24.292434540000
        94    3        4.690347890000       3.337424110000      24.822382120000
        95    3        8.661248010000       1.845767830000      21.979612150000
        96    3        8.968789510000       0.226702200000      25.044458350000
        97    3        9.497549710000       3.249386820000      24.824069020000
        98    3       17.433634110000       5.314337670000      24.396629280000
        99    3       18.074805710000       4.401016710000      27.344144730000
       100    3        4.870659450000       6.356544610000      25.660211790000
       101    4        8.323797400000       1.800001740000      23.972170690000
       102    4       18.905513990000       4.833174040000      25.616402960000
       103    1        9.239851300000      10.744251660000      15.858470080000
       104    2        8.562503410000       9.925877700000      16.152295660000
       105    1       10.105653160000      12.557925380000      14.935555340000
       106    2        9.971422960000      13.612743930000      14.502879760000
       107    1       11.125050570000      11.900540970000      15.618585970000
       108    2       12.197611960000      12.120986060000      15.753099310000
       109    1        7.049145460000      13.961782590000      16.906327440000
       110    2        7.726314180000      13.255797720000      17.346110620000
       111    1        5.555811790000       9.371248600000      14.912899070000
       112    2        5.774177270000       9.079499980000      13.844520640000
       113    1        5.326988870000      10.745333590000      16.614317110000
       114    2        5.287469750000      11.653399050000      17.156775770000
       115    1       13.132541790000       9.575321630000      14.318535560000
       116    2       12.426055470000      10.337934510000      13.911359090000
       117    1       13.029715570000       8.481528710000      19.492948700000
       118    2       12.717609110000       7.474584150000      19.264603960000
       119    1       10.348271460000       6.815735940000      15.806400750000
       120    2       10.864860660000       7.029786170000      14.818013570000
       121    1        9.765275960000       6.989978140000      17.848842970000
       122    2        9.705261820000       7.317840460000      18.885630150000
       123    1        7.053711310000      13.916094500000      30.551139140000
       124    2        7.732593820000      14.634821620000      30.960849680000
       125    1       14.067377960000       8.045661660000      15.641145420000
       126    2       14.316291880000       7.606585800000      16.667709620000
       127    3        8.927681220000      11.812786640000      15.078490560000
       128    3       10.561418540000      10.689379900000      16.134541800000
       129    3        6.554554410000      12.773136650000      31.119910120000
       130    3        6.519749020000      13.662415730000      15.680239080000
       131    3        5.850257020000      10.651372620000      15.377435370000
       132    3       13.029163870000       9.005175680000      15.535720460000
       133    3       12.442468880000       9.498000090000      18.651492060000
       134    3       10.594451460000       7.556040480000      16.933342240000
       135    4        7.090559270000      12.125358240000      14.477917320000
       136    4       11.598326450000       9.239182320000      16.882388390000
       137    1        6.212957930000       2.655566230000      15.591555240000
       138    2        6.888814950000       1.802477840000      15.581851200000
       139    1        5.499951220000       4.716307690000      15.329037640000
       140    2        5.697161370000       5.701343540000      14.902176870000
       141    1        4.408945740000       3.935071120000      15.673272830000
       142    2       18.833930860000       4.294591180000      15.852114470000
       143    1        9.036448410000       5.986764070000      17.266275590000
       144    2        8.180295250000       5.490484880000      17.798480730000
       145    1        9.855990140000       1.346080650000      14.902013440000
       146    2        9.673063200000       1.039007090000      13.872010230000
       147    1       10.238991110000       2.749024070000      16.557027170000
       148    2       10.320716580000       3.662291740000      17.192431640000
       149    1       17.800195510000       1.598867480000      14.093564410000
       150    2       18.451866450000       2.436942020000      13.806141380000
       151    1       17.723349050000       0.563613910000      19.290970730000
       152    2       17.871594960000      -0.512072380000      19.236752770000
       153    1        5.449656640000      -0.881823260000      15.454789190000
       154    2        4.705024070000      -0.961956010000      14.651919780000
       155    1        6.128696800000      -0.522641750000      17.515375920000
       156    2        6.102804780000      -0.125717850000      18.534127320000
       157    1        7.862850260000       5.069093800000      30.454069610000
       158    2        6.809206860000       5.150070270000      30.672974000000
       159    1       16.623756410000       0.074296650000      15.191434190000
       160    2       16.379310710000      -0.652495060000      15.930997480000
       161    3        6.615303470000       3.888275800000      15.276026390000
       162    3        4.867472960000       2.624872340000      15.808119940000
       163    3        8.824017070000       4.557403990000      31.347289870000
       164    3        9.342899340000       5.938299260000      15.929712500000
       165    3        9.635176410000       2.641882640000      15.351949220000
       166    3       17.773346270000       0.850973330000      15.218246460000
       167    3       18.301986180000       1.412011600000      18.285400120000
       168    3        5.184558590000      -0.146713190000      16.578734300000
       169    4        8.612090540000       4.401540490000      14.870703150000
       170    4       19.173893870000       1.139653200000      16.540308890000
       171    1        9.131426190000      10.918701910000      25.099175510000
       172    2        8.324845440000      11.451109580000      25.627094190000
       173    1       10.141490710000       9.339347550000      23.907474460000
       174    2       10.238725090000       8.542240530000      23.180968750000
       175    1       11.089190430000       9.914344490000      24.783440280000
       176    2       12.073431100000       9.518266280000      24.998271240000
       177    1        6.648472360000       7.553588530000      26.366479760000
       178    2        7.339098040000       8.106011470000      27.000484180000
       179    1        5.636002690000      12.102940550000      24.158575500000
       180    2        6.188916760000      12.465194370000      23.286393000000
       181    1        5.159059470000      10.734449480000      25.825794850000
       182    2        5.019648980000       9.832990690000      26.445852190000
       183    1       12.960827210000      12.805663880000      23.787266730000
       184    2       12.189537230000      13.387051260000      23.269052020000
       185    1       12.749657380000      13.131328540000      28.946583790000
       186    2       12.417959610000      14.203469700000      28.930017960000
       187    1       10.158103230000      14.961283040000      25.088008090000
       188    2       11.009574030000      15.253926840000      24.407213110000
       189    1        9.042336600000      14.332132420000      26.849530490000
       190    2        8.882643130000      13.929420110000      27.860987860000
       191    1        7.176216920000       8.264402970000      20.926423720000
       192    2        8.189237320000       7.891223040000      21.103358330000
       193    1       14.107506360000      11.813956960000      25.345108940000
       194    2       14.316493640000      11.204028040000      26.256475840000
       195    3        8.891986730000       9.959577800000      24.106154800000
       196    3       10.448741490000      10.921915890000      25.505569310000
       197    3        6.458120110000       8.869763680000      21.981026040000
       198    3        6.571057750000       7.655496250000      24.972929700000
       199    3        5.868020050000      10.807537220000      24.682778370000
       200    3       12.974951840000      12.546467480000      25.112942170000
       201    3       12.223386320000      12.214031030000      28.048750910000
       202    3       10.273286820000      14.164496490000      26.134263000000
       203    4        7.000893680000       9.370369010000      23.810930280000
       204    4       11.331310290000      12.494483850000      26.358926550000
       205    1       16.918653280000      10.729345570000      20.058294340000
       206    2       16.240585010000       9.920250450000      19.736594140000
       207    1       17.563774080000      12.511987400000      21.195645050000
       208    2       17.438803380000      13.421771160000      21.806993820000
       209    1       18.662624960000      11.976281090000      20.461434840000
       210    2        4.275555020000      12.330774700000      20.479144740000
       211    1       14.199533130000      13.692450850000      18.635864440000
       212    2       15.030311770000      13.184261080000      18.122267320000
       213    1       13.779780480000       9.165018670000      20.493526470000
       214    2       14.363698490000       8.733100380000      21.372684470000
       215    1       12.885472090000      10.658080010000      19.163999800000
       216    2       12.642983370000      11.590149360000      18.686211720000
       217    1        5.291412240000       9.226160640000      21.455772600000
       218    2        4.425840830000       9.750024370000      21.926348170000
       219    1        4.801741490000       8.714301480000      15.905979310000
       220    2        4.366042190000       7.673336100000      15.902680030000
       221    1       17.705898220000       6.805827790000      19.698216830000
       222    2       18.186292200000       6.755575880000      20.660346370000
       223    1       17.198691820000       7.283589040000      17.630508300000
       224    2       17.326821830000       7.686462440000      16.617615910000
       225    1       14.762633380000      11.632993430000      24.085672750000
       226    2       15.821853560000      11.494786060000      23.797755520000
       227    1        6.407969590000       8.376255600000      19.775584920000
       228    2        6.594058620000       8.124682870000      18.678422450000
       229    3       16.470138110000      11.701136540000      20.917248710000
       230    3       18.266680790000      10.830312990000      19.760362320000
       231    3       14.054428450000      12.283535530000      23.132219530000
       232    3       14.069763070000      13.634243980000      19.994408970000
       233    3       13.633096240000      10.525896330000      20.253912270000
       234    3        5.269943120000       9.075553400000      20.119268680000
       235    3        4.665018720000       9.587359340000      17.003058110000
       236    3       17.980429250000       7.703286420000      18.688468210000
       237    4       14.455469870000      12.023107270000      21.217481690000
       238    4        3.748049360000       9.427503270000      18.768288180000
       239    1       13.890627140000       3.056099870000      28.823929820000
       240    2       14.631006610000       3.807530340000      28.449073550000
       241    1       13.216866620000       1.354705940000      29.915326340000
       242    2       13.327150680000       0.469131190000      30.593435820000
       243    1       12.117095030000       1.918717030000      29.298703180000
       244    2       11.091482840000       1.567864650000      29.427332030000
       245    1       16.300114690000      -0.102304250000      27.467033220000
       246    2       15.494161700000       0.571049810000      27.083848590000
       247    1       17.137004470000       4.750514980000      29.363953180000
       248    2       16.703987100000       5.111839420000      30.320278690000
       249    1       17.807630030000       3.173331750000      27.887769170000
       250    2       18.009127960000       2.262754850000      27.353900530000
       251    1        9.982304190000       4.559808200000      30.703916290000
       252    2       10.833173380000       3.959682990000      30.991496130000
       253    1        9.858959770000       5.367044980000      25.449215720000
       254    2        9.831776790000       6.455768780000      25.581136370000
       255    1       13.178467230000       6.942407150000      29.336410110000
       256    2       12.369259230000       6.996135410000      30.061497470000
       257    1       14.043379740000       6.417639330000      27.374522890000
       258    2       14.060064410000       5.848340410000      26.419016720000
       259    1       15.976535590000       0.347645970000      13.988590880000
       260    2       15.115975190000      -0.023458860000      13.489313440000
       261    1        8.588693330000       5.434066190000      29.299088180000
       262    2        8.254317590000       5.779118060000      28.306212000000
       263    3       14.310715920000       2.112033530000      29.629630800000
       264    3       12.544324860000       3.024356090000      28.567140070000
       265    3       16.753958700000       1.259625730000      13.303700890000
       266    3       16.712699980000       0.047333120000      28.775826590000
       267    3       17.220402580000       3.351461300000      29.088531390000
       268    3        9.951176780000       5.069365160000      29.440016640000
       269    3       10.581323250000       4.480775150000      26.308368410000
       270    3       13.017944730000       6.129302280000      28.280421630000
       271    4       16.282585400000       1.796304730000      29.885089730000
       272    4       11.411821770000       4.889885030000      28.122751640000
