LAMMPS data file -- atom_style full -- generated by chemfiles
13527 atoms
12366 bonds
17091 angles
23112 dihedrals
6804 impropers
9 atom types
8 bond types
12 angle types
14 dihedral types
6 improper types
0 51.036 xlo xhi
0 51.036 ylo yhi
0 51.036 zlo zhi

# Pair Coeffs
# 1 C1
# 2 C2
# 3 C3
# 4 H2
# 5 H3
# 6 Hw
# 7 N
# 8 Ow
# 9 Zn

# Bond Coeffs
# 1 C1-C3
# 2 C1-N
# 3 C2-C2
# 4 C2-H2
# 5 C2-N
# 6 C3-H3
# 7 Hw-Ow
# 8 N-Zn

# Angle Coeffs
# 1 C1-C3-H3
# 2 C1-N-C2
# 3 C1-N-Zn
# 4 C2-C2-H2
# 5 C2-C2-N
# 6 C2-N-Zn
# 7 C3-C1-N
# 8 H2-C2-N
# 9 H3-C3-H3
# 10 Hw-Ow-Hw
# 11 N-C1-N
# 12 N-Zn-N

# Dihedrals Coeffs
# 1 C1-N-Zn-N
# 2 C2-C2-N-C1
# 3 C2-C2-N-Zn
# 4 C2-N-Zn-N
# 5 C3-C1-N-C2
# 6 C3-C1-N-Zn
# 7 H2-C2-C2-H2
# 8 H2-C2-C2-N
# 9 H2-C2-N-C1
# 10 H2-C2-N-Zn
# 11 H3-C3-C1-N
# 12 N-C1-N-C2
# 13 N-C1-N-Zn
# 14 N-C2-C2-N

# Impropers Coeffs
# 1 C1-C3-H3-H3
# 2 C1-N-C2-Zn
# 3 C2-C2-H2-N
# 4 C3-C1-N-N
# 5 H3-C3-H3-H3
# 6 N-Zn-N-N

Masses

1 12.011 # C1
2 12.011 # C2
3 12.011 # C3
4 1.008 # H2
5 1.008 # H3
6 1.008 # Hw
7 14.007 # N
8 15.999 # Ow
9 65.38 # Zn

Atoms # full

1 1 9 0 4.253 12.759 8.506 # Zn
2 1 9 0 4.253 12.759 51.036 # Zn
3 1 9 0 8.506 4.253 12.759 # Zn
4 1 9 0 0 4.253 12.759 # Zn
5 1 9 0 12.759 8.506 4.253 # Zn
6 1 9 0 12.759 17.012 4.253 # Zn
7 1 9 0 12.759 4.253 8.506 # Zn
8 1 9 0 12.759 4.253 0 # Zn
9 1 9 0 4.253 8.506 12.759 # Zn
10 1 9 0 4.253 0 12.759 # Zn
11 1 9 0 8.506 12.759 4.253 # Zn
12 1 9 0 17.012 12.759 4.253 # Zn
13 1 1 0 2.163 12.861 6.343 # C1
14 1 1 0 6.343 12.657 6.343 # C1
15 1 1 0 6.343 12.861 2.163 # C1
16 2 1 0 2.163 12.657 2.163 # C1
17 1 1 0 6.343 2.163 12.861 # C1
18 1 1 0 6.343 6.343 12.657 # C1
19 1 1 0 2.163 6.343 12.861 # C1
20 1 1 0 2.163 2.163 12.657 # C1
21 1 1 0 12.861 6.343 2.163 # C1
22 1 1 0 12.657 6.343 6.343 # C1
23 1 1 0 12.861 2.163 6.343 # C1
24 1 1 0 12.657 2.163 2.163 # C1
25 1 1 0 10.668 4.355 14.849 # C1
26 1 1 0 14.849 4.151 14.849 # C1
27 1 1 0 14.849 4.355 10.668 # C1
28 1 1 0 10.668 4.151 10.668 # C1
29 1 1 0 14.849 10.668 4.355 # C1
30 1 1 0 14.849 14.849 4.151 # C1
31 1 1 0 10.668 14.849 4.355 # C1
32 1 1 0 10.668 10.668 4.151 # C1
33 1 1 0 4.355 14.849 10.668 # C1
34 1 1 0 4.151 14.849 14.849 # C1
35 1 1 0 4.355 10.668 14.849 # C1
36 1 1 0 4.151 10.668 10.668 # C1
37 1 2 0 2.061 10.966 7.412 # C2
38 1 2 0 6.445 14.552 7.412 # C2
39 1 2 0 6.445 10.966 1.094 # C2
40 2 2 0 2.061 14.552 1.094 # C2
41 1 2 0 7.412 2.061 10.966 # C2
42 1 2 0 7.412 6.445 14.552 # C2
43 1 2 0 1.094 6.445 10.966 # C2
44 1 2 0 1.094 2.061 14.552 # C2
45 1 2 0 10.966 7.412 2.061 # C2
46 1 2 0 14.552 7.412 6.445 # C2
47 1 2 0 10.966 1.094 6.445 # C2
48 1 2 0 14.552 1.094 2.061 # C2
49 1 2 0 10.966 2.061 7.412 # C2
50 1 2 0 14.552 6.445 7.412 # C2
51 1 2 0 10.966 6.445 1.094 # C2
52 1 2 0 14.552 2.061 1.094 # C2
53 1 2 0 2.061 7.412 10.966 # C2
54 1 2 0 6.445 7.412 14.552 # C2
55 1 2 0 6.445 1.094 10.966 # C2
56 1 2 0 2.061 1.094 14.552 # C2
57 1 2 0 7.412 10.966 2.061 # C2
58 1 2 0 7.412 14.552 6.445 # C2
59 1 2 0 1.094 10.966 6.445 # C2
60 2 2 0 1.094 14.552 2.061 # C2
61 1 2 0 10.567 2.46 15.918 # C2
62 1 2 0 14.951 6.046 15.918 # C2
63 1 2 0 14.951 2.46 9.599 # C2
64 1 2 0 10.567 6.046 9.599 # C2
65 1 2 0 15.918 10.567 2.46 # C2
66 1 2 0 15.918 14.951 6.046 # C2
67 1 2 0 9.599 14.951 2.46 # C2
68 1 2 0 9.599 10.567 6.046 # C2
69 1 2 0 2.46 15.918 10.567 # C2
70 1 2 0 6.046 15.918 14.951 # C2
71 1 2 0 2.46 9.599 14.951 # C2
72 1 2 0 6.046 9.599 10.567 # C2
73 1 2 0 2.46 10.567 15.918 # C2
74 1 2 0 6.046 14.951 15.918 # C2
75 1 2 0 2.46 14.951 9.599 # C2
76 1 2 0 6.046 10.567 9.599 # C2
77 1 2 0 10.567 15.918 2.46 # C2
78 1 2 0 14.951 15.918 6.046 # C2
79 1 2 0 14.951 9.599 2.46 # C2
80 1 2 0 10.567 9.599 6.046 # C2
81 1 2 0 15.918 2.46 10.567 # C2
82 1 2 0 15.918 6.046 14.951 # C2
83 1 2 0 9.599 2.46 14.951 # C2
84 1 2 0 9.599 6.046 10.567 # C2
85 1 4 0 2.322 10.207 8.134 # H2
86 1 4 0 6.184 15.31 8.134 # H2
87 1 4 0 6.184 10.207 0.371 # H2
88 2 4 0 2.322 15.31 0.371 # H2
89 1 4 0 8.134 2.322 10.207 # H2
90 1 4 0 8.134 6.184 15.31 # H2
91 1 4 0 0.371 6.184 10.207 # H2
92 1 4 0 0.371 2.322 15.31 # H2
93 1 4 0 10.207 8.134 2.322 # H2
94 1 4 0 15.31 8.134 6.184 # H2
95 1 4 0 10.207 0.371 6.184 # H2
96 1 4 0 15.31 0.371 2.322 # H2
97 1 4 0 10.207 2.322 8.134 # H2
98 1 4 0 15.31 6.184 8.134 # H2
99 1 4 0 10.207 6.184 0.371 # H2
100 1 4 0 15.31 2.322 0.371 # H2
101 1 4 0 2.322 8.134 10.207 # H2
102 1 4 0 6.184 8.134 15.31 # H2
103 1 4 0 6.184 0.371 10.207 # H2
104 1 4 0 2.322 0.371 15.31 # H2
105 1 4 0 8.134 10.207 2.322 # H2
106 1 4 0 8.134 15.31 6.184 # H2
107 1 4 0 0.371 10.207 6.184 # H2
108 2 4 0 0.371 15.31 2.322 # H2
109 1 4 0 10.828 1.701 16.64 # H2
110 1 4 0 14.689 6.805 16.64 # H2
111 1 4 0 14.689 1.701 8.877 # H2
112 1 4 0 10.828 6.805 8.877 # H2
113 1 4 0 16.64 10.828 1.701 # H2
114 1 4 0 16.64 14.689 6.805 # H2
115 1 4 0 8.877 14.689 1.701 # H2
116 1 4 0 8.877 10.828 6.805 # H2
117 1 4 0 1.701 16.64 10.828 # H2
118 1 4 0 6.805 16.64 14.689 # H2
119 1 4 0 1.701 8.877 14.689 # H2
120 1 4 0 6.805 8.877 10.828 # H2
121 1 4 0 1.701 10.828 16.64 # H2
122 1 4 0 6.805 14.689 16.64 # H2
123 1 4 0 1.701 14.689 8.877 # H2
124 1 4 0 6.805 10.828 8.877 # H2
125 1 4 0 10.828 16.64 1.701 # H2
126 1 4 0 14.689 16.64 6.805 # H2
127 1 4 0 14.689 8.877 1.701 # H2
128 1 4 0 10.828 8.877 6.805 # H2
129 1 4 0 16.64 1.701 10.828 # H2
130 1 4 0 16.64 6.805 14.689 # H2
131 1 4 0 8.877 1.701 14.689 # H2
132 1 4 0 8.877 6.805 10.828 # H2
133 1 3 0 2.631 14.193 5.875 # C3
134 1 3 0 5.875 11.325 5.875 # C3
135 1 3 0 5.875 14.193 2.631 # C3
136 2 3 0 2.631 11.325 2.631 # C3
137 1 3 0 5.875 2.631 14.193 # C3
138 1 3 0 5.875 5.875 11.325 # C3
139 1 3 0 2.631 5.875 14.193 # C3
140 1 3 0 2.631 2.631 11.325 # C3
141 1 3 0 14.193 5.875 2.631 # C3
142 1 3 0 11.325 5.875 5.875 # C3
143 1 3 0 14.193 2.631 5.875 # C3
144 1 3 0 11.325 2.631 2.631 # C3
145 1 3 0 11.137 5.687 14.381 # C3
146 1 3 0 14.381 2.819 14.381 # C3
147 1 3 0 14.381 5.687 11.137 # C3
148 1 3 0 11.137 2.819 11.137 # C3
149 1 3 0 14.381 11.137 5.687 # C3
150 1 3 0 14.381 14.381 2.819 # C3
151 1 3 0 11.137 14.381 5.687 # C3
152 1 3 0 11.137 11.137 2.819 # C3
153 1 3 0 5.687 14.381 11.137 # C3
154 1 3 0 2.819 14.381 14.381 # C3
155 1 3 0 5.687 11.137 14.381 # C3
156 1 3 0 2.819 11.137 11.137 # C3
157 1 5 0 5.441 14.769 1.812 # H3
158 2 5 0 3.065 10.748 1.812 # H3
159 1 5 0 3.065 14.769 6.693 # H3
160 1 5 0 5.441 10.748 6.693 # H3
161 1 5 0 1.812 5.441 14.769 # H3
162 1 5 0 1.812 3.065 10.748 # H3
163 1 5 0 6.693 3.065 14.769 # H3
164 1 5 0 6.693 5.441 10.748 # H3
165 1 5 0 14.769 1.812 5.441 # H3
166 1 5 0 10.748 1.812 3.065 # H3
167 1 5 0 14.769 6.693 3.065 # H3
168 1 5 0 10.748 6.693 5.441 # H3
169 1 5 0 14.769 5.441 1.812 # H3
170 1 5 0 10.748 3.065 1.812 # H3
171 1 5 0 14.769 3.065 6.693 # H3
172 1 5 0 10.748 5.441 6.693 # H3
173 1 5 0 5.441 1.812 14.769 # H3
174 1 5 0 3.065 1.812 10.748 # H3
175 1 5 0 3.065 6.693 14.769 # H3
176 1 5 0 5.441 6.693 10.748 # H3
177 1 5 0 1.812 14.769 5.441 # H3
178 2 5 0 1.812 10.748 3.065 # H3
179 1 5 0 6.693 14.769 3.065 # H3
180 1 5 0 6.693 10.748 5.441 # H3
181 1 5 0 13.947 6.263 10.318 # H3
182 1 5 0 11.571 2.242 10.318 # H3
183 1 5 0 11.571 6.263 15.199 # H3
184 1 5 0 13.947 2.242 15.199 # H3
185 1 5 0 10.318 13.947 6.263 # H3
186 1 5 0 10.318 11.571 2.242 # H3
187 1 5 0 15.199 11.571 6.263 # H3
188 1 5 0 15.199 13.947 2.242 # H3
189 1 5 0 6.263 10.318 13.947 # H3
190 1 5 0 2.242 10.318 11.571 # H3
191 1 5 0 6.263 15.199 11.571 # H3
192 1 5 0 2.242 15.199 13.947 # H3
193 1 5 0 6.263 13.947 10.318 # H3
194 1 5 0 2.242 11.571 10.318 # H3
195 1 5 0 6.263 11.571 15.199 # H3
196 1 5 0 2.242 13.947 15.199 # H3
197 1 5 0 13.947 10.318 6.263 # H3
198 1 5 0 11.571 10.318 2.242 # H3
199 1 5 0 11.571 15.199 6.263 # H3
200 1 5 0 13.947 15.199 2.242 # H3
201 1 5 0 10.318 6.263 13.947 # H3
202 1 5 0 10.318 2.242 11.571 # H3
203 1 5 0 15.199 6.263 11.571 # H3
204 1 5 0 15.199 2.242 13.947 # H3
205 1 5 0 5.103 14.095 3.403 # H3
206 2 5 0 3.403 11.423 3.403 # H3
207 1 5 0 3.403 14.095 5.103 # H3
208 1 5 0 5.103 11.423 5.103 # H3
209 1 5 0 3.403 5.103 14.095 # H3
210 1 5 0 3.403 3.403 11.423 # H3
211 1 5 0 5.103 3.403 14.095 # H3
212 1 5 0 5.103 5.103 11.423 # H3
213 1 5 0 14.095 3.403 5.103 # H3
214 1 5 0 11.423 3.403 3.403 # H3
215 1 5 0 14.095 5.103 3.403 # H3
216 1 5 0 11.423 5.103 5.103 # H3
217 1 5 0 13.609 5.589 11.909 # H3
218 1 5 0 11.909 2.917 11.909 # H3
219 1 5 0 11.909 5.589 13.609 # H3
220 1 5 0 13.609 2.917 13.609 # H3
221 1 5 0 11.909 13.609 5.589 # H3
222 1 5 0 11.909 11.909 2.917 # H3
223 1 5 0 13.609 11.909 5.589 # H3
224 1 5 0 13.609 13.609 2.917 # H3
225 1 5 0 5.589 11.909 13.609 # H3
226 1 5 0 2.917 11.909 11.909 # H3
227 1 5 0 5.589 13.609 11.909 # H3
228 1 5 0 2.917 13.609 13.609 # H3
229 1 7 0 2.73 12.166 7.348 # N
230 1 7 0 5.776 13.352 7.348 # N
231 1 7 0 5.776 12.166 1.158 # N
232 2 7 0 2.73 13.352 1.158 # N
233 1 7 0 7.348 2.73 12.166 # N
234 1 7 0 7.348 5.776 13.352 # N
235 1 7 0 1.158 5.776 12.166 # N
236 1 7 0 1.158 2.73 13.352 # N
237 1 7 0 12.166 7.348 2.73 # N
238 1 7 0 13.352 7.348 5.776 # N
239 1 7 0 12.166 1.158 5.776 # N
240 1 7 0 13.352 1.158 2.73 # N
241 1 7 0 12.166 2.73 7.348 # N
242 1 7 0 13.352 5.776 7.348 # N
243 1 7 0 12.166 5.776 1.158 # N
244 1 7 0 13.352 2.73 1.158 # N
245 1 7 0 2.73 7.348 12.166 # N
246 1 7 0 5.776 7.348 13.352 # N
247 1 7 0 5.776 1.158 12.166 # N
248 1 7 0 2.73 1.158 13.352 # N
249 1 7 0 7.348 12.166 2.73 # N
250 1 7 0 7.348 13.352 5.776 # N
251 1 7 0 1.158 12.166 5.776 # N
252 2 7 0 1.158 13.352 2.73 # N
253 1 7 0 11.236 3.66 15.853 # N
254 1 7 0 14.282 4.846 15.853 # N
255 1 7 0 14.282 3.66 9.664 # N
256 1 7 0 11.236 4.846 9.664 # N
257 1 7 0 15.853 11.236 3.66 # N
258 1 7 0 15.853 14.282 4.846 # N
259 1 7 0 9.664 14.282 3.66 # N
260 1 7 0 9.664 11.236 4.846 # N
261 1 7 0 3.66 15.853 11.236 # N
262 1 7 0 4.846 15.853 14.282 # N
263 1 7 0 3.66 9.664 14.282 # N
264 1 7 0 4.846 9.664 11.236 # N
265 1 7 0 3.66 11.236 15.853 # N
266 1 7 0 4.846 14.282 15.853 # N
267 1 7 0 3.66 14.282 9.664 # N
268 1 7 0 4.846 11.236 9.664 # N
269 1 7 0 11.236 15.853 3.66 # N
270 1 7 0 14.282 15.853 4.846 # N
271 1 7 0 14.282 9.664 3.66 # N
272 1 7 0 11.236 9.664 4.846 # N
273 1 7 0 15.853 3.66 11.236 # N
274 1 7 0 15.853 4.846 14.282 # N
275 1 7 0 9.664 3.66 14.282 # N
276 1 7 0 9.664 4.846 11.236 # N
277 1 9 0 4.253 12.759 25.518 # Zn
278 1 9 0 4.253 12.759 17.012 # Zn
279 1 9 0 8.506 4.253 29.771 # Zn
280 1 9 0 0 4.253 29.771 # Zn
281 1 9 0 12.759 8.506 21.265 # Zn
282 1 9 0 12.759 17.012 21.265 # Zn
283 1 9 0 12.759 4.253 25.518 # Zn
284 1 9 0 12.759 4.253 17.012 # Zn
285 1 9 0 4.253 8.506 29.771 # Zn
286 1 9 0 4.253 0 29.771 # Zn
287 1 9 0 8.506 12.759 21.265 # Zn
288 1 9 0 17.012 12.759 21.265 # Zn
289 1 1 0 2.163 12.861 23.355 # C1
290 1 1 0 6.343 12.657 23.355 # C1
291 1 1 0 6.343 12.861 19.175 # C1
292 1 1 0 2.163 12.657 19.175 # C1
293 1 1 0 6.343 2.163 29.873 # C1
294 1 1 0 6.343 6.343 29.669 # C1
295 1 1 0 2.163 6.343 29.873 # C1
296 1 1 0 2.163 2.163 29.669 # C1
297 1 1 0 12.861 6.343 19.175 # C1
298 1 1 0 12.657 6.343 23.355 # C1
299 1 1 0 12.861 2.163 23.355 # C1
300 1 1 0 12.657 2.163 19.175 # C1
301 1 1 0 10.668 4.355 31.861 # C1
302 1 1 0 14.849 4.151 31.861 # C1
303 1 1 0 14.849 4.355 27.68 # C1
304 1 1 0 10.668 4.151 27.68 # C1
305 1 1 0 14.849 10.668 21.367 # C1
306 1 1 0 14.849 14.849 21.163 # C1
307 1 1 0 10.668 14.849 21.367 # C1
308 1 1 0 10.668 10.668 21.163 # C1
309 1 1 0 4.355 14.849 27.68 # C1
310 1 1 0 4.151 14.849 31.861 # C1
311 1 1 0 4.355 10.668 31.861 # C1
312 1 1 0 4.151 10.668 27.68 # C1
313 1 2 0 2.061 10.966 24.424 # C2
314 1 2 0 6.445 14.552 24.424 # C2
315 1 2 0 6.445 10.966 18.106 # C2
316 1 2 0 2.061 14.552 18.106 # C2
317 1 2 0 7.412 2.061 27.978 # C2
318 1 2 0 7.412 6.445 31.564 # C2
319 1 2 0 1.094 6.445 27.978 # C2
320 1 2 0 1.094 2.061 31.564 # C2
321 1 2 0 10.966 7.412 19.073 # C2
322 1 2 0 14.552 7.412 23.457 # C2
323 1 2 0 10.966 1.094 23.457 # C2
324 1 2 0 14.552 1.094 19.073 # C2
325 1 2 0 10.966 2.061 24.424 # C2
326 1 2 0 14.552 6.445 24.424 # C2
327 1 2 0 10.966 6.445 18.106 # C2
328 1 2 0 14.552 2.061 18.106 # C2
329 1 2 0 2.061 7.412 27.978 # C2
330 1 2 0 6.445 7.412 31.564 # C2
331 1 2 0 6.445 1.094 27.978 # C2
332 1 2 0 2.061 1.094 31.564 # C2
333 1 2 0 7.412 10.966 19.073 # C2
334 1 2 0 7.412 14.552 23.457 # C2
335 1 2 0 1.094 10.966 23.457 # C2
336 1 2 0 1.094 14.552 19.073 # C2
337 1 2 0 10.567 2.46 32.93 # C2
338 1 2 0 14.951 6.046 32.93 # C2
339 1 2 0 14.951 2.46 26.611 # C2
340 1 2 0 10.567 6.046 26.611 # C2
341 1 2 0 15.918 10.567 19.472 # C2
342 1 2 0 15.918 14.951 23.058 # C2
343 1 2 0 9.599 14.951 19.472 # C2
344 1 2 0 9.599 10.567 23.058 # C2
345 1 2 0 2.46 15.918 27.579 # C2
346 1 2 0 6.046 15.918 31.963 # C2
347 1 2 0 2.46 9.599 31.963 # C2
348 1 2 0 6.046 9.599 27.579 # C2
349 1 2 0 2.46 10.567 32.93 # C2
350 1 2 0 6.046 14.951 32.93 # C2
351 1 2 0 2.46 14.951 26.611 # C2
352 1 2 0 6.046 10.567 26.611 # C2
353 1 2 0 10.567 15.918 19.472 # C2
354 1 2 0 14.951 15.918 23.058 # C2
355 1 2 0 14.951 9.599 19.472 # C2
356 1 2 0 10.567 9.599 23.058 # C2
357 1 2 0 15.918 2.46 27.579 # C2
358 1 2 0 15.918 6.046 31.963 # C2
359 1 2 0 9.599 2.46 31.963 # C2
360 1 2 0 9.599 6.046 27.579 # C2
361 1 4 0 2.322 10.207 25.146 # H2
362 1 4 0 6.184 15.31 25.146 # H2
363 1 4 0 6.184 10.207 17.383 # H2
364 1 4 0 2.322 15.31 17.383 # H2
365 1 4 0 8.134 2.322 27.219 # H2
366 1 4 0 8.134 6.184 32.322 # H2
367 1 4 0 0.371 6.184 27.219 # H2
368 1 4 0 0.371 2.322 32.322 # H2
369 1 4 0 10.207 8.134 19.334 # H2
370 1 4 0 15.31 8.134 23.196 # H2
371 1 4 0 10.207 0.371 23.196 # H2
372 1 4 0 15.31 0.371 19.334 # H2
373 1 4 0 10.207 2.322 25.146 # H2
374 1 4 0 15.31 6.184 25.146 # H2
375 1 4 0 10.207 6.184 17.383 # H2
376 1 4 0 15.31 2.322 17.383 # H2
377 1 4 0 2.322 8.134 27.219 # H2
378 1 4 0 6.184 8.134 32.322 # H2
379 1 4 0 6.184 0.371 27.219 # H2
380 1 4 0 2.322 0.371 32.322 # H2
381 1 4 0 8.134 10.207 19.334 # H2
382 1 4 0 8.134 15.31 23.196 # H2
383 1 4 0 0.371 10.207 23.196 # H2
384 1 4 0 0.371 15.31 19.334 # H2
385 1 4 0 10.828 1.701 33.652 # H2
386 1 4 0 14.689 6.805 33.652 # H2
387 1 4 0 14.689 1.701 25.889 # H2
388 1 4 0 10.828 6.805 25.889 # H2
389 1 4 0 16.64 10.828 18.713 # H2
390 1 4 0 16.64 14.689 23.817 # H2
391 1 4 0 8.877 14.689 18.713 # H2
392 1 4 0 8.877 10.828 23.817 # H2
393 1 4 0 1.701 16.64 27.84 # H2
394 1 4 0 6.805 16.64 31.701 # H2
395 1 4 0 1.701 8.877 31.701 # H2
396 1 4 0 6.805 8.877 27.84 # H2
397 1 4 0 1.701 10.828 33.652 # H2
398 1 4 0 6.805 14.689 33.652 # H2
399 1 4 0 1.701 14.689 25.889 # H2
400 1 4 0 6.805 10.828 25.889 # H2
401 1 4 0 10.828 16.64 18.713 # H2
402 1 4 0 14.689 16.64 23.817 # H2
403 1 4 0 14.689 8.877 18.713 # H2
404 1 4 0 10.828 8.877 23.817 # H2
405 1 4 0 16.64 1.701 27.84 # H2
406 1 4 0 16.64 6.805 31.701 # H2
407 1 4 0 8.877 1.701 31.701 # H2
408 1 4 0 8.877 6.805 27.84 # H2
409 1 3 0 2.631 14.193 22.887 # C3
410 1 3 0 5.875 11.325 22.887 # C3
411 1 3 0 5.875 14.193 19.643 # C3
412 1 3 0 2.631 11.325 19.643 # C3
413 1 3 0 5.875 2.631 31.205 # C3
414 1 3 0 5.875 5.875 28.337 # C3
415 1 3 0 2.631 5.875 31.205 # C3
416 1 3 0 2.631 2.631 28.337 # C3
417 1 3 0 14.193 5.875 19.643 # C3
418 1 3 0 11.325 5.875 22.887 # C3
419 1 3 0 14.193 2.631 22.887 # C3
420 1 3 0 11.325 2.631 19.643 # C3
421 1 3 0 11.137 5.687 31.393 # C3
422 1 3 0 14.381 2.819 31.393 # C3
423 1 3 0 14.381 5.687 28.149 # C3
424 1 3 0 11.137 2.819 28.149 # C3
425 1 3 0 14.381 11.137 22.699 # C3
426 1 3 0 14.381 14.381 19.831 # C3
427 1 3 0 11.137 14.381 22.699 # C3
428 1 3 0 11.137 11.137 19.831 # C3
429 1 3 0 5.687 14.381 28.149 # C3
430 1 3 0 2.819 14.381 31.393 # C3
431 1 3 0 5.687 11.137 31.393 # C3
432 1 3 0 2.819 11.137 28.149 # C3
433 1 5 0 5.441 14.769 18.824 # H3
434 1 5 0 3.065 10.748 18.824 # H3
435 1 5 0 3.065 14.769 23.705 # H3
436 1 5 0 5.441 10.748 23.705 # H3
437 1 5 0 1.812 5.441 31.781 # H3
438 1 5 0 1.812 3.065 27.76 # H3
439 1 5 0 6.693 3.065 31.781 # H3
440 1 5 0 6.693 5.441 27.76 # H3
441 1 5 0 14.769 1.812 22.453 # H3
442 1 5 0 10.748 1.812 20.077 # H3
443 1 5 0 14.769 6.693 20.077 # H3
444 1 5 0 10.748 6.693 22.453 # H3
445 1 5 0 14.769 5.441 18.824 # H3
446 1 5 0 10.748 3.065 18.824 # H3
447 1 5 0 14.769 3.065 23.705 # H3
448 1 5 0 10.748 5.441 23.705 # H3
449 1 5 0 5.441 1.812 31.781 # H3
450 1 5 0 3.065 1.812 27.76 # H3
451 1 5 0 3.065 6.693 31.781 # H3
452 1 5 0 5.441 6.693 27.76 # H3
453 1 5 0 1.812 14.769 22.453 # H3
454 1 5 0 1.812 10.748 20.077 # H3
455 1 5 0 6.693 14.769 20.077 # H3
456 1 5 0 6.693 10.748 22.453 # H3
457 1 5 0 13.947 6.263 27.33 # H3
458 1 5 0 11.571 2.242 27.33 # H3
459 1 5 0 11.571 6.263 32.211 # H3
460 1 5 0 13.947 2.242 32.211 # H3
461 1 5 0 10.318 13.947 23.275 # H3
462 1 5 0 10.318 11.571 19.254 # H3
463 1 5 0 15.199 11.571 23.275 # H3
464 1 5 0 15.199 13.947 19.254 # H3
465 1 5 0 6.263 10.318 30.959 # H3
466 1 5 0 2.242 10.318 28.583 # H3
467 1 5 0 6.263 15.199 28.583 # H3
468 1 5 0 2.242 15.199 30.959 # H3
469 1 5 0 6.263 13.947 27.33 # H3
470 1 5 0 2.242 11.571 27.33 # H3
471 1 5 0 6.263 11.571 32.211 # H3
472 1 5 0 2.242 13.947 32.211 # H3
473 1 5 0 13.947 10.318 23.275 # H3
474 1 5 0 11.571 10.318 19.254 # H3
475 1 5 0 11.571 15.199 23.275 # H3
476 1 5 0 13.947 15.199 19.254 # H3
477 1 5 0 10.318 6.263 30.959 # H3
478 1 5 0 10.318 2.242 28.583 # H3
479 1 5 0 15.199 6.263 28.583 # H3
480 1 5 0 15.199 2.242 30.959 # H3
481 1 5 0 5.103 14.095 20.415 # H3
482 1 5 0 3.403 11.423 20.415 # H3
483 1 5 0 3.403 14.095 22.115 # H3
484 1 5 0 5.103 11.423 22.115 # H3
485 1 5 0 3.403 5.103 31.107 # H3
486 1 5 0 3.403 3.403 28.435 # H3
487 1 5 0 5.103 3.403 31.107 # H3
488 1 5 0 5.103 5.103 28.435 # H3
489 1 5 0 14.095 3.403 22.115 # H3
490 1 5 0 11.423 3.403 20.415 # H3
491 1 5 0 14.095 5.103 20.415 # H3
492 1 5 0 11.423 5.103 22.115 # H3
493 1 5 0 13.609 5.589 28.921 # H3
494 1 5 0 11.909 2.917 28.921 # H3
495 1 5 0 11.909 5.589 30.621 # H3
496 1 5 0 13.609 2.917 30.621 # H3
497 1 5 0 11.909 13.609 22.601 # H3
498 1 5 0 11.909 11.909 19.929 # H3
499 1 5 0 13.609 11.909 22.601 # H3
500 1 5 0 13.609 13.609 19.929 # H3
501 1 5 0 5.589 11.909 30.621 # H3
502 1 5 0 2.917 11.909 28.921 # H3
503 1 5 0 5.589 13.609 28.921 # H3
504 1 5 0 2.917 13.609 30.621 # H3
505 1 7 0 2.73 12.166 24.36 # N
506 1 7 0 5.776 13.352 24.36 # N
507 1 7 0 5.776 12.166 18.17 # N
508 1 7 0 2.73 13.352 18.17 # N
509 1 7 0 7.348 2.73 29.178 # N
510 1 7 0 7.348 5.776 30.364 # N
511 1 7 0 1.158 5.776 29.178 # N
512 1 7 0 1.158 2.73 30.364 # N
513 1 7 0 12.166 7.348 19.742 # N
514 1 7 0 13.352 7.348 22.788 # N
515 1 7 0 12.166 1.158 22.788 # N
516 1 7 0 13.352 1.158 19.742 # N
517 1 7 0 12.166 2.73 24.36 # N
518 1 7 0 13.352 5.776 24.36 # N
519 1 7 0 12.166 5.776 18.17 # N
520 1 7 0 13.352 2.73 18.17 # N
521 1 7 0 2.73 7.348 29.178 # N
522 1 7 0 5.776 7.348 30.364 # N
523 1 7 0 5.776 1.158 29.178 # N
524 1 7 0 2.73 1.158 30.364 # N
525 1 7 0 7.348 12.166 19.742 # N
526 1 7 0 7.348 13.352 22.788 # N
527 1 7 0 1.158 12.166 22.788 # N
528 1 7 0 1.158 13.352 19.742 # N
529 1 7 0 11.236 3.66 32.865 # N
530 1 7 0 14.282 4.846 32.865 # N
531 1 7 0 14.282 3.66 26.676 # N
532 1 7 0 11.236 4.846 26.676 # N
533 1 7 0 15.853 11.236 20.672 # N
534 1 7 0 15.853 14.282 21.858 # N
535 1 7 0 9.664 14.282 20.672 # N
536 1 7 0 9.664 11.236 21.858 # N
537 1 7 0 3.66 15.853 28.248 # N
538 1 7 0 4.846 15.853 31.294 # N
539 1 7 0 3.66 9.664 31.294 # N
540 1 7 0 4.846 9.664 28.248 # N
541 1 7 0 3.66 11.236 32.865 # N
542 1 7 0 4.846 14.282 32.865 # N
543 1 7 0 3.66 14.282 26.676 # N
544 1 7 0 4.846 11.236 26.676 # N
545 1 7 0 11.236 15.853 20.672 # N
546 1 7 0 14.282 15.853 21.858 # N
547 1 7 0 14.282 9.664 20.672 # N
548 1 7 0 11.236 9.664 21.858 # N
549 1 7 0 15.853 3.66 28.248 # N
550 1 7 0 15.853 4.846 31.294 # N
551 1 7 0 9.664 3.66 31.294 # N
552 1 7 0 9.664 4.846 28.248 # N
553 1 9 0 4.253 12.759 42.53 # Zn
554 1 9 0 4.253 12.759 34.024 # Zn
555 1 9 0 8.506 4.253 46.783 # Zn
556 1 9 0 0 4.253 46.783 # Zn
557 1 9 0 12.759 8.506 38.277 # Zn
558 1 9 0 12.759 17.012 38.277 # Zn
559 1 9 0 12.759 4.253 42.53 # Zn
560 1 9 0 12.759 4.253 34.024 # Zn
561 1 9 0 4.253 8.506 46.783 # Zn
562 1 9 0 4.253 0 46.783 # Zn
563 1 9 0 8.506 12.759 38.277 # Zn
564 1 9 0 17.012 12.759 38.277 # Zn
565 1 1 0 2.163 12.861 40.367 # C1
566 1 1 0 6.343 12.657 40.367 # C1
567 1 1 0 6.343 12.861 36.187 # C1
568 1 1 0 2.163 12.657 36.187 # C1
569 1 1 0 6.343 2.163 46.885 # C1
570 1 1 0 6.343 6.343 46.681 # C1
571 1 1 0 2.163 6.343 46.885 # C1
572 1 1 0 2.163 2.163 46.681 # C1
573 1 1 0 12.861 6.343 36.187 # C1
574 1 1 0 12.657 6.343 40.367 # C1
575 1 1 0 12.861 2.163 40.367 # C1
576 1 1 0 12.657 2.163 36.187 # C1
577 1 1 0 10.668 4.355 48.873 # C1
578 1 1 0 14.849 4.151 48.873 # C1
579 1 1 0 14.849 4.355 44.692 # C1
580 1 1 0 10.668 4.151 44.692 # C1
581 1 1 0 14.849 10.668 38.379 # C1
582 1 1 0 14.849 14.849 38.175 # C1
583 1 1 0 10.668 14.849 38.379 # C1
584 1 1 0 10.668 10.668 38.175 # C1
585 1 1 0 4.355 14.849 44.692 # C1
586 1 1 0 4.151 14.849 48.873 # C1
587 1 1 0 4.355 10.668 48.873 # C1
588 1 1 0 4.151 10.668 44.692 # C1
589 1 2 0 2.061 10.966 41.436 # C2
590 1 2 0 6.445 14.552 41.436 # C2
591 1 2 0 6.445 10.966 35.118 # C2
592 1 2 0 2.061 14.552 35.118 # C2
593 1 2 0 7.412 2.061 44.99 # C2
594 1 2 0 7.412 6.445 48.576 # C2
595 1 2 0 1.094 6.445 44.99 # C2
596 1 2 0 1.094 2.061 48.576 # C2
597 1 2 0 10.966 7.412 36.085 # C2
598 1 2 0 14.552 7.412 40.469 # C2
599 1 2 0 10.966 1.094 40.469 # C2
600 1 2 0 14.552 1.094 36.085 # C2
601 1 2 0 10.966 2.061 41.436 # C2
602 1 2 0 14.552 6.445 41.436 # C2
603 1 2 0 10.966 6.445 35.118 # C2
604 1 2 0 14.552 2.061 35.118 # C2
605 1 2 0 2.061 7.412 44.99 # C2
606 1 2 0 6.445 7.412 48.576 # C2
607 1 2 0 6.445 1.094 44.99 # C2
608 1 2 0 2.061 1.094 48.576 # C2
609 1 2 0 7.412 10.966 36.085 # C2
610 1 2 0 7.412 14.552 40.469 # C2
611 1 2 0 1.094 10.966 40.469 # C2
612 1 2 0 1.094 14.552 36.085 # C2
613 1 2 0 10.567 2.46 49.942 # C2
614 1 2 0 14.951 6.046 49.942 # C2
615 1 2 0 14.951 2.46 43.623 # C2
616 1 2 0 10.567 6.046 43.623 # C2
617 1 2 0 15.918 10.567 36.484 # C2
618 1 2 0 15.918 14.951 40.07 # C2
619 1 2 0 9.599 14.951 36.484 # C2
620 1 2 0 9.599 10.567 40.07 # C2
621 1 2 0 2.46 15.918 44.591 # C2
622 1 2 0 6.046 15.918 48.975 # C2
623 1 2 0 2.46 9.599 48.975 # C2
624 1 2 0 6.046 9.599 44.591 # C2
625 1 2 0 2.46 10.567 49.942 # C2
626 1 2 0 6.046 14.951 49.942 # C2
627 1 2 0 2.46 14.951 43.623 # C2
628 1 2 0 6.046 10.567 43.623 # C2
629 1 2 0 10.567 15.918 36.484 # C2
630 1 2 0 14.951 15.918 40.07 # C2
631 1 2 0 14.951 9.599 36.484 # C2
632 1 2 0 10.567 9.599 40.07 # C2
633 1 2 0 15.918 2.46 44.591 # C2
634 1 2 0 15.918 6.046 48.975 # C2
635 1 2 0 9.599 2.46 48.975 # C2
636 1 2 0 9.599 6.046 44.591 # C2
637 1 4 0 2.322 10.207 42.158 # H2
638 1 4 0 6.184 15.31 42.158 # H2
639 1 4 0 6.184 10.207 34.395 # H2
640 1 4 0 2.322 15.31 34.395 # H2
641 1 4 0 8.134 2.322 44.231 # H2
642 1 4 0 8.134 6.184 49.334 # H2
643 1 4 0 0.371 6.184 44.231 # H2
644 1 4 0 0.371 2.322 49.334 # H2
645 1 4 0 10.207 8.134 36.346 # H2
646 1 4 0 15.31 8.134 40.208 # H2
647 1 4 0 10.207 0.371 40.208 # H2
648 1 4 0 15.31 0.371 36.346 # H2
649 1 4 0 10.207 2.322 42.158 # H2
650 1 4 0 15.31 6.184 42.158 # H2
651 1 4 0 10.207 6.184 34.395 # H2
652 1 4 0 15.31 2.322 34.395 # H2
653 1 4 0 2.322 8.134 44.231 # H2
654 1 4 0 6.184 8.134 49.334 # H2
655 1 4 0 6.184 0.371 44.231 # H2
656 1 4 0 2.322 0.371 49.334 # H2
657 1 4 0 8.134 10.207 36.346 # H2
658 1 4 0 8.134 15.31 40.208 # H2
659 1 4 0 0.371 10.207 40.208 # H2
660 1 4 0 0.371 15.31 36.346 # H2
661 1 4 0 10.828 1.701 50.664 # H2
662 1 4 0 14.689 6.805 50.664 # H2
663 1 4 0 14.689 1.701 42.901 # H2
664 1 4 0 10.828 6.805 42.901 # H2
665 1 4 0 16.64 10.828 35.725 # H2
666 1 4 0 16.64 14.689 40.829 # H2
667 1 4 0 8.877 14.689 35.725 # H2
668 1 4 0 8.877 10.828 40.829 # H2
669 1 4 0 1.701 16.64 44.852 # H2
670 1 4 0 6.805 16.64 48.713 # H2
671 1 4 0 1.701 8.877 48.713 # H2
672 1 4 0 6.805 8.877 44.852 # H2
673 1 4 0 1.701 10.828 50.664 # H2
674 1 4 0 6.805 14.689 50.664 # H2
675 1 4 0 1.701 14.689 42.901 # H2
676 1 4 0 6.805 10.828 42.901 # H2
677 1 4 0 10.828 16.64 35.725 # H2
678 1 4 0 14.689 16.64 40.829 # H2
679 1 4 0 14.689 8.877 35.725 # H2
680 1 4 0 10.828 8.877 40.829 # H2
681 1 4 0 16.64 1.701 44.852 # H2
682 1 4 0 16.64 6.805 48.713 # H2
683 1 4 0 8.877 1.701 48.713 # H2
684 1 4 0 8.877 6.805 44.852 # H2
685 1 3 0 2.631 14.193 39.899 # C3
686 1 3 0 5.875 11.325 39.899 # C3
687 1 3 0 5.875 14.193 36.655 # C3
688 1 3 0 2.631 11.325 36.655 # C3
689 1 3 0 5.875 2.631 48.217 # C3
690 1 3 0 5.875 5.875 45.349 # C3
691 1 3 0 2.631 5.875 48.217 # C3
692 1 3 0 2.631 2.631 45.349 # C3
693 1 3 0 14.193 5.875 36.655 # C3
694 1 3 0 11.325 5.875 39.899 # C3
695 1 3 0 14.193 2.631 39.899 # C3
696 1 3 0 11.325 2.631 36.655 # C3
697 1 3 0 11.137 5.687 48.405 # C3
698 1 3 0 14.381 2.819 48.405 # C3
699 1 3 0 14.381 5.687 45.161 # C3
700 1 3 0 11.137 2.819 45.161 # C3
701 1 3 0 14.381 11.137 39.711 # C3
702 1 3 0 14.381 14.381 36.843 # C3
703 1 3 0 11.137 14.381 39.711 # C3
704 1 3 0 11.137 11.137 36.843 # C3
705 1 3 0 5.687 14.381 45.161 # C3
706 1 3 0 2.819 14.381 48.405 # C3
707 1 3 0 5.687 11.137 48.405 # C3
708 1 3 0 2.819 11.137 45.161 # C3
709 1 5 0 5.441 14.769 35.836 # H3
710 1 5 0 3.065 10.748 35.836 # H3
711 1 5 0 3.065 14.769 40.717 # H3
712 1 5 0 5.441 10.748 40.717 # H3
713 1 5 0 1.812 5.441 48.793 # H3
714 1 5 0 1.812 3.065 44.772 # H3
715 1 5 0 6.693 3.065 48.793 # H3
716 1 5 0 6.693 5.441 44.772 # H3
717 1 5 0 14.769 1.812 39.465 # H3
718 1 5 0 10.748 1.812 37.089 # H3
719 1 5 0 14.769 6.693 37.089 # H3
720 1 5 0 10.748 6.693 39.465 # H3
721 1 5 0 14.769 5.441 35.836 # H3
722 1 5 0 10.748 3.065 35.836 # H3
723 1 5 0 14.769 3.065 40.717 # H3
724 1 5 0 10.748 5.441 40.717 # H3
725 1 5 0 5.441 1.812 48.793 # H3
726 1 5 0 3.065 1.812 44.772 # H3
727 1 5 0 3.065 6.693 48.793 # H3
728 1 5 0 5.441 6.693 44.772 # H3
729 1 5 0 1.812 14.769 39.465 # H3
730 1 5 0 1.812 10.748 37.089 # H3
731 1 5 0 6.693 14.769 37.089 # H3
732 1 5 0 6.693 10.748 39.465 # H3
733 1 5 0 13.947 6.263 44.342 # H3
734 1 5 0 11.571 2.242 44.342 # H3
735 1 5 0 11.571 6.263 49.223 # H3
736 1 5 0 13.947 2.242 49.223 # H3
737 1 5 0 10.318 13.947 40.287 # H3
738 1 5 0 10.318 11.571 36.266 # H3
739 1 5 0 15.199 11.571 40.287 # H3
740 1 5 0 15.199 13.947 36.266 # H3
741 1 5 0 6.263 10.318 47.971 # H3
742 1 5 0 2.242 10.318 45.595 # H3
743 1 5 0 6.263 15.199 45.595 # H3
744 1 5 0 2.242 15.199 47.971 # H3
745 1 5 0 6.263 13.947 44.342 # H3
746 1 5 0 2.242 11.571 44.342 # H3
747 1 5 0 6.263 11.571 49.223 # H3
748 1 5 0 2.242 13.947 49.223 # H3
749 1 5 0 13.947 10.318 40.287 # H3
750 1 5 0 11.571 10.318 36.266 # H3
751 1 5 0 11.571 15.199 40.287 # H3
752 1 5 0 13.947 15.199 36.266 # H3
753 1 5 0 10.318 6.263 47.971 # H3
754 1 5 0 10.318 2.242 45.595 # H3
755 1 5 0 15.199 6.263 45.595 # H3
756 1 5 0 15.199 2.242 47.971 # H3
757 1 5 0 5.103 14.095 37.427 # H3
758 1 5 0 3.403 11.423 37.427 # H3
759 1 5 0 3.403 14.095 39.127 # H3
760 1 5 0 5.103 11.423 39.127 # H3
761 1 5 0 3.403 5.103 48.119 # H3
762 1 5 0 3.403 3.403 45.447 # H3
763 1 5 0 5.103 3.403 48.119 # H3
764 1 5 0 5.103 5.103 45.447 # H3
765 1 5 0 14.095 3.403 39.127 # H3
766 1 5 0 11.423 3.403 37.427 # H3
767 1 5 0 14.095 5.103 37.427 # H3
768 1 5 0 11.423 5.103 39.127 # H3
769 1 5 0 13.609 5.589 45.933 # H3
770 1 5 0 11.909 2.917 45.933 # H3
771 1 5 0 11.909 5.589 47.633 # H3
772 1 5 0 13.609 2.917 47.633 # H3
773 1 5 0 11.909 13.609 39.613 # H3
774 1 5 0 11.909 11.909 36.941 # H3
775 1 5 0 13.609 11.909 39.613 # H3
776 1 5 0 13.609 13.609 36.941 # H3
777 1 5 0 5.589 11.909 47.633 # H3
778 1 5 0 2.917 11.909 45.933 # H3
779 1 5 0 5.589 13.609 45.933 # H3
780 1 5 0 2.917 13.609 47.633 # H3
781 1 7 0 2.73 12.166 41.372 # N
782 1 7 0 5.776 13.352 41.372 # N
783 1 7 0 5.776 12.166 35.182 # N
784 1 7 0 2.73 13.352 35.182 # N
785 1 7 0 7.348 2.73 46.19 # N
786 1 7 0 7.348 5.776 47.376 # N
787 1 7 0 1.158 5.776 46.19 # N
788 1 7 0 1.158 2.73 47.376 # N
789 1 7 0 12.166 7.348 36.754 # N
790 1 7 0 13.352 7.348 39.8 # N
791 1 7 0 12.166 1.158 39.8 # N
792 1 7 0 13.352 1.158 36.754 # N
793 1 7 0 12.166 2.73 41.372 # N
794 1 7 0 13.352 5.776 41.372 # N
795 1 7 0 12.166 5.776 35.182 # N
796 1 7 0 13.352 2.73 35.182 # N
797 1 7 0 2.73 7.348 46.19 # N
798 1 7 0 5.776 7.348 47.376 # N
799 1 7 0 5.776 1.158 46.19 # N
800 1 7 0 2.73 1.158 47.376 # N
801 1 7 0 7.348 12.166 36.754 # N
802 1 7 0 7.348 13.352 39.8 # N
803 1 7 0 1.158 12.166 39.8 # N
804 1 7 0 1.158 13.352 36.754 # N
805 1 7 0 11.236 3.66 49.877 # N
806 1 7 0 14.282 4.846 49.877 # N
807 1 7 0 14.282 3.66 43.688 # N
808 1 7 0 11.236 4.846 43.688 # N
809 1 7 0 15.853 11.236 37.684 # N
810 1 7 0 15.853 14.282 38.87 # N
811 1 7 0 9.664 14.282 37.684 # N
812 1 7 0 9.664 11.236 38.87 # N
813 1 7 0 3.66 15.853 45.26 # N
814 1 7 0 4.846 15.853 48.306 # N
815 1 7 0 3.66 9.664 48.306 # N
816 1 7 0 4.846 9.664 45.26 # N
817 1 7 0 3.66 11.236 49.877 # N
818 1 7 0 4.846 14.282 49.877 # N
819 1 7 0 3.66 14.282 43.688 # N
820 1 7 0 4.846 11.236 43.688 # N
821 1 7 0 11.236 15.853 37.684 # N
822 1 7 0 14.282 15.853 38.87 # N
823 1 7 0 14.282 9.664 37.684 # N
824 1 7 0 11.236 9.664 38.87 # N
825 1 7 0 15.853 3.66 45.26 # N
826 1 7 0 15.853 4.846 48.306 # N
827 1 7 0 9.664 3.66 48.306 # N
828 1 7 0 9.664 4.846 45.26 # N
829 1 9 0 4.253 29.771 8.506 # Zn
830 1 9 0 4.253 29.771 51.036 # Zn
831 1 9 0 8.506 21.265 12.759 # Zn
832 1 9 0 0 21.265 12.759 # Zn
833 1 9 0 12.759 25.518 4.253 # Zn
834 1 9 0 12.759 34.024 4.253 # Zn
835 1 9 0 12.759 21.265 8.506 # Zn
836 1 9 0 12.759 21.265 0 # Zn
837 1 9 0 4.253 25.518 12.759 # Zn
838 1 9 0 4.253 17.012 12.759 # Zn
839 1 9 0 8.506 29.771 4.253 # Zn
840 1 9 0 17.012 29.771 4.253 # Zn
841 1 1 0 2.163 29.873 6.343 # C1
842 1 1 0 6.343 29.669 6.343 # C1
843 1 1 0 6.343 29.873 2.163 # C1
844 3 1 0 2.163 29.669 2.163 # C1
845 1 1 0 6.343 19.175 12.861 # C1
846 1 1 0 6.343 23.355 12.657 # C1
847 1 1 0 2.163 23.355 12.861 # C1