402
 i =     6100, time =    12200.000, E =     -5882.3842645120
  O         6.4493206384        1.5444825891       10.7924058019
  O        -5.5059811388       -3.8697250374       -7.5550452874
  O         9.0645101681       -6.0632725405        6.7292145044
  O        -7.5777728692        7.0667820748        1.5455132357
  O         1.6562233640        8.2293255238       -3.7197979556
  O         8.1146580624        6.9156256869        3.1355587779
  O        -6.1011285573        6.9903224840        3.7364056736
  O         5.2977608990        6.0962320359       -5.0564164844
  O        -8.0902687554       -5.4572568608       -0.7703374109
  O         8.5377728167       -3.2961048283        6.0889470518
  O         9.3253727726       -2.3583878754       -2.4572003192
  O        -3.2090501052       -2.5901017014       -7.3862461277
  O         8.4657227959       -1.0734551160       -6.2870024179
  O        -4.8882908981       -6.2229314792        9.8550995885
  O        -7.2051242505       -1.6530140112        9.6387761917
  O        -6.2841287876        5.6449791730       -0.3661963211
  O         0.0770522154       -7.4065162939        7.8511143126
  O        -6.1365719631        0.8338696311       -4.4323354977
  O        -1.5034384830        7.4142301366        6.1301397851
  O         8.3028754326       -5.4293124675       10.7370493565
  O        -8.1281336372       -6.5869640968        5.3871859601
  O         6.8203528918       -7.4585938590        4.1128725383
  O        -8.5132139655       -1.0422826847       -7.6038831006
  O         3.7452924968      -10.0718532841        5.2562228820
  O        -7.6339414482       -3.2023175559       -3.2109598974
  O        -8.6250002721        6.7698065714        3.7736171522
  O        -2.5280661647        6.0096453263       -7.3928517780
  O        -7.0020771153        0.7282150273       10.5112780094
  O        -4.8979708454       -7.8459600784        6.1266693747
  O        -8.7534990327       -8.1653953551        7.3808176087
  O         0.5531723209        6.5629719452       -1.8675532917
  O         3.3780750313        2.6024948501       -5.4467652595
  O        -7.1011988659       -7.6171703599        3.2593102469
  O        -3.7585959696       -7.6098744950       -7.7439089115
  O         7.0212637328       -9.2450035707       -2.9840238064
  O        -7.1477357126       -4.8196323679        9.4191406474
  O         8.6178071580        5.7888969054        7.9719749643
  O        -3.9694913288        1.5869980925       -5.9631227456
  O         4.9162590586       -5.7422856039       -3.4339239045
  O        -6.9255376515        5.5941142889       -4.9999073444
  O        -5.8315868099        2.9826010280       10.1651916921
  O        -2.0854142675        9.1835916152        8.0763071023
  O         5.5462317034        2.1891335719        6.8213012367
  O         4.3571743525        3.1567450286        8.9512806678
  O         9.4705083806        1.4269266954        9.9285881138
  O        -2.4864741444       -6.6378833828        9.2770679187
  O        -7.6025605404        6.7717183321       -7.2868089414
  O         4.6487007981       -0.2365658709       10.3468526571
  O         6.1564783336        8.3246474706        9.3117546649
  O        -0.2390292665        3.2289236403       10.6667150462
  O         6.1176286720       -7.4641357290        6.6284704571
  O         4.8357565446       -7.4497746474       -5.2417640101
  O        -3.8757678703        3.9186693978       -7.2282967601
  O         2.3638916933        7.5814238028        9.7656013586
  O         8.2833030143        2.8692488836       -7.3948141807
  O         0.7061196984        4.5779569440       -6.5670492595
  O        -8.8160406152       -2.3668166546       -5.4768414652
  O         9.3285178045        1.8460849067        5.0706658850
  O        -4.9369448116       -5.9675728429       -5.8171845657
  O         4.6385236112       -8.2277626884       -2.5493643774
  O        -8.2369084433        8.0887610583       -5.1437640842
  O        -1.8274965861        8.4926180403       10.8245220539
  O        -6.2320896921        6.9615182675        8.7156168890
  O         3.4778137067       -6.5913709979       10.5712911488
  O        -7.9906893146       -1.9770040735       -0.7179375106
  O        -6.2509218142       -5.6250833166        7.0617885899
  O         0.2466438856       -7.4631784979       -5.1175869021
  O        -7.1596874374       -4.3810661257       -5.5232455871
  O         6.4490411665        0.2119390152        8.4284197882
  O        -8.6937248263        0.3262902428       -5.3746464111
  O         4.3865142245       -4.7428717222       -7.0814975438
  O        -9.6170452095       -4.7735221581        1.3308999578
  O        -8.1091657749        4.4629404818        1.2273933093
  O         4.4589921951        4.4637091860        6.4662406911
  O        -6.6441517137      -10.2245728827       -0.8509945727
  O        -6.9510913637       -9.8039604958        8.4659861266
  O         4.3285878880        7.0069386007        6.0826022747
  O         6.5486949339       -3.0182765784       -6.7741604805
  O         3.2588793938        2.9168166376       -8.0467129377
  O        -1.2884438167        4.4432644019        8.7476125356
  O         6.6359158926       -6.3218339870        8.9309798976
  O        -5.6122305773       -0.4542796745        7.7025859176
  O         9.7377129098        3.5537218375       -4.0775577768
  O        -5.7405298062       -5.8698419013        4.4857761271
  O        -7.2431081901      -10.2321037794        3.2935837507
  O         7.3274637390        0.3556138657        6.0165200003
  O         9.4204114801       -3.2426898079        3.6072714446
  O        -0.2471630321        6.7977989638       -7.2757548279
  O         7.3196447443       -8.8535109235        8.4298292045
  O        -7.5141578980        4.2608931173       -2.3778293247
  O         8.8547324792       -4.7616839357       -1.1247080887
  O         6.0021545608        5.8506645675       -2.3799839944
  O         9.1335727732       -6.3058233652       -6.2764401251
  O         6.0662616385       -4.0172072575       10.2810490995
  O         5.8901761935      -10.3974481730        6.8040477182
  O         9.0001494057        3.2888947545        1.0090677662
  O         8.1198724277       -4.1123796052        8.4653805698
  O        -4.6217408092       -2.2679924519        9.6351067040
  O         5.9952686422        2.3759708374       -6.0946114230
  O         6.6040929213        8.6830577996        1.8544258259
  O        -6.1836294157        8.5327632855       10.8344307176
  O         1.9929230853        7.3480795703       -6.2224849802
  O        -7.1557817883       -7.5175812978        9.4899002383
  O         7.1370778726       -1.8811420300        4.1314285584
  O         4.1803458978       -7.4742310890        4.9437979955
  O        -7.3254888747        4.7032864278        7.8262321023
  O        -8.1610892921        1.8954266168        0.5495400540
  O         4.7838879916       -8.1222149475        8.8924431202
  O         9.2466289493       -7.1110450089        0.0875103555
  O         9.2679074006       -8.1263548872        5.0476118141
  O         6.7303048861       -6.7550361583       -1.8441767617
  O         6.9079033287       -3.9998834676       -2.4424231890
  O        -0.3744734829       -9.4792845410        6.2176314271
  O         9.8941690727        5.6217512889       -5.7396132306
  O         7.2006856772       -1.0746653178       10.8131797571
  O         0.7042299595      -10.2029402013       10.9490746190
  O        -2.4632895992       -7.0078912739       -5.5347361453
  O        -1.9119841738        8.1152683461       -5.8709598083
  O        -3.8768913954        4.2976270970        9.1420389352
  O        -7.2160464587       -6.7032246419       -3.2164994845
  O         7.6283986418        4.9840306055       -4.4234437336
  O         2.9114567168       -9.1717554518       10.0393794965
  O        -1.1467595320       -8.8538708218       -6.9220008579
  O         6.6349693227        8.1940920391       -4.6707312428
  O         5.9567838298        8.0378366760        4.2759534736
  O        -0.9962704236       -8.4250526551        9.9574510754
  O        -8.5338526970        7.0009767934        7.2619319969
  O        -0.7532599657       -3.6694519387       11.3174775159
  O        -8.4708394340       -9.1915529354        0.8234052363
  O        -5.4594903948        3.4654715958       -4.7141430963
  O         8.0485659756        2.2700287633        7.7898676890
  O        -5.1792006073        5.2598959784       -2.9262333683
  O        -0.1037063401       -6.0403415783       10.1448026978
  O         8.3967656445       -9.7609754197        0.1620458873
  O         6.3471359231        7.7678698499       -0.5208794619
  O        -6.1897479856        9.2387583879       -3.4554825199
  O         8.7051891607        6.6387188499        5.5300565255
  O        -3.8563564252        6.8369207802        4.9840543462
  O        -4.3377525958        0.7341103496        5.7479641957
  O        -5.5349176470        8.2024117667       -5.8936733024
  O         8.9551823874       -9.8329171688       -4.7116080531
  O         7.2879262448        6.2025405626       10.3021317415
  O         2.1397386786       -9.2563728279       -5.5850052561
  O        -6.9012944147        7.1357459108       -2.4831273299
  O        -5.7541403679       -1.3030406938       -7.4804161112
  O         2.1029939556       -8.3262217900        6.4160527370
  O         6.5748316419       -6.5600791417       -7.0476643584
  O        -8.1097498150        1.8389032946       -3.1259545351
  O        -4.8571645754       -9.1432343832        3.7177489579
  O         8.7682470611       -5.8336825827        3.5836360042
  O         4.0817842777        8.5328317847       -5.2854763829
  O        -7.9917727971       -8.6818571389       -4.9517282830
  O         3.2469990638        0.3359882921       -6.8525798486
  O         6.5006983955        4.3999770006        8.3559620053
  O         5.7070027377       -0.5510110832       -6.5210071112
  O         2.4724723221       -6.6631279070       -6.4168988854
  O        10.4285889605        8.3675240230       -2.0684853227
  O        -8.6333613396        2.5447730224        3.0560906617
  O         4.9801777464       -8.5552882395       11.7018346154
  O        -6.4845782837        2.1195134706       -6.7153473098
  O         5.8954783759        7.6964430015       -7.3121673091
  O        -9.2579185609       -9.2175113256        9.6241362993
  O         4.1104712349       -2.3019849287       11.8134931482
  O        -8.0489788776       -5.0815587406        3.3613013097
  O        -3.7494620348        8.7488683860       -3.9490932324
  O         3.5629801391        5.3510172501       10.3000446217
  O        -6.1801317676       -3.0500787492        7.6242959444
  O        -5.4347082594        8.7956173447        5.7912393810
  O         7.5802900436        5.0261108126       -0.4370924948
  O        -6.4034225460        2.1797791384        6.8359039964
  O         0.1843769656        6.1923547714       -4.5951602266
  O         5.6674287471        4.0078821174       -8.1070659506
  O         5.2669124349        3.8503353278       -3.9775133296
  O         9.4817746831        3.2794604644       -1.6042165563
  O        -3.0541712960        5.2249310435        6.9035216410
  O        -1.5956555386       -9.1815526187       -4.2924230091
  O         0.9843751293       -3.7113132825        9.1756381993
  O         1.8243801945       -4.5848975813       11.5150162165
  O         8.2738926674        8.6566232859       11.0442705419
  O        -1.5640243751        2.6558988755       -6.5794500385
  O        -9.0573387836       -9.5782627631       -7.1455972007
  O        -2.9590185470       -9.6661771972        5.5523511064
  O        -8.0332916458       -0.7225553876       -3.1433650065
  O         9.3118066331        4.4845474939        4.0130008444
  O        -4.3923093577        8.9322626484        9.1582579912
  O        -3.4397555915        1.9645801513       -8.6009713960
  O        -1.5905958641        5.3292991471        4.6824956264
  O         1.1164352742        1.9300025118       -6.7527405973
  O         8.5786730983        8.3814531312        7.7173107652
  O        -2.9847903907       -5.1262363816       11.4247837892
  O         0.9925813339        5.3671513972        9.8395974020
  O        -6.9019292631       -6.1119020726       -7.6880474633
  O        -8.6507202022       -4.2309547959        7.4207370462
  O        -6.1716628129        6.2637741853        6.1894780401
  O        -3.7487735460       -5.3521703260        6.0391804545
  O        -4.2360784621        1.8137359862        8.1974404691
  O        -8.4313002626        3.0408044369       11.1901027028
  O         7.3958629130       -5.8308270816       -4.2473444752
  O         8.4081342678       -8.0419365662       11.2080647977
  O         8.7475381612        4.0134832999        9.8518252016
  O        -5.9421813406       -8.9833469778        1.3508757981
  O        -8.6570832967        2.6874218909        8.0120438588
  O         6.0931314150       -9.0234154994       -0.4958311628
  O         6.7714956479       -8.9491756663       -5.8770713795
  O         8.8306306730       -8.2452409025        2.4317605352
  O         2.3213054730        5.4443631249        5.1257479564
  O        -9.7687974180       -7.0415778825       -3.7049808777
  O        -6.7213483160       -7.5052040294       -0.5449710292
  O         9.9637849495        6.0461838566       -3.2720437564
  O        -9.6846795397        0.3320371080        7.2349277118
  O         2.6454623698       -7.2285078516       -3.8972889714
  O        -9.6494147875       -4.5726507875       -4.4209696148
  O         9.5126159497       -0.9605087635        4.9894562913
  O        -5.2157452964        6.1680965347       -7.7748513920
  O        -2.7787988364        6.6633167767        9.0642465283
  O        10.4698562661        6.2544106524       -0.5561874953
  O         1.0684248114       -9.9769544466        8.3605113356
  O        -8.1736320252       -8.9072525016       -2.3522928782
  O        -8.2073924443        3.6730666168        5.5763197451
  O        -1.1941134450        7.8000663877       -3.4113764130
  O        -4.6380931527       -8.7338626113       -5.5321574233
  O        -4.2222045788        5.6862531539       -5.3032248106
  O         8.2652576172        7.0324507435       -1.9200546206
  O         2.5180399346        5.9059393962        7.7798799311
 Si         3.0546871598       -8.5640559607        5.0496413057
 Si        -6.4829910533       -6.1725112014       10.0493922252
 Si        -4.0420526929        5.4618104675       -6.9214168867
 Si         6.2538405297        0.1560385906       10.0421774189
 Si        -9.6188142797       -5.5390097604       -0.0897557371
 Si        -9.2967591279       -7.2420799059        6.2119911159
 Si         9.2550248475        6.1844522956        4.0478800201
 Si        -8.0833628695        6.5533002655       -5.7375620909
 Si         4.0898407483       -8.0938329289       10.3820183614
 Si        -3.1291328137        2.4898788279       -7.0779754431
 Si        -8.9697745829       -9.8301716112       -5.4954329848
 Si         6.0519429045        5.2303566514       -3.9139969508
 Si         3.3568646042        5.6973965023        6.3891208567
 Si        -7.0815371143       -0.7686394660       10.9802452099
 Si         8.1380585676       -6.6070742759       -7.5491916331
 Si         6.2286754402       -7.6911237046        8.2517350457
 Si        -7.4032442957        8.8834830537       -2.3187120716
 Si        -5.1148424570       -6.2030210571        6.0263777685
 Si         4.2581967951        3.8601020302       10.4892970981
 Si        -4.7105860217       -2.5507073526       11.2709331870
 Si        -7.1231502125        6.2470849657        7.4759710376
 Si         2.4976907478        8.5654008210       -5.1217275720
 Si        -5.4917792640        5.0346061436       -4.4852354921
 Si         5.3030792793       -3.5423549305       -7.7174776058
 Si         7.0771067157      -10.4281104681        8.0415744988
 Si        -7.2151710174       -6.3038663190        4.0592675633
 Si         4.9113736118        2.5376138028       -4.8248474512
 Si        -1.7088257204        7.3361486502       -7.2847282259
 Si        -8.3133475074       -3.6632395843       -4.6426356593
 Si         5.2905543896        3.5685222169        7.6202155556
 Si         4.2583811567       -7.1726997215       -3.7623210875
 Si         6.8002494335        1.2531382432        7.2489669133
 Si        -8.7309284129        3.3075282971       -2.7356826636
 Si         9.0639269773       -4.4633401563        7.1531783863
 Si        -6.9129963000       -6.3376343001       -1.6185325229
 Si        -2.1467708899       -3.9085603145       -7.1828405228
 Si        -6.5242805226        5.6457688831       -1.9955686240
 Si         9.3564783464        2.8617751619       10.7661237489
 Si        -8.0620873628       -8.5962676312        8.7048871638
 Si        -2.9462347378        8.2749448790        9.1071453931
 Si         0.5484949368       -4.4165375761       10.4803010845
 Si         8.5237779480       -2.3762749514        4.7250251494
 Si        -5.2104206763        1.0374126016        7.0902465537
 Si        -6.9999422655       -8.9978886883        0.1060652606
 Si         3.0167914046       -5.6404589165       -7.5484474795
 Si        -6.0190750982        8.5169505374        9.2287318521
 Si        -8.4639123950       -2.0676468228       -2.3167690417
 Si         5.4357335485        7.5833525559       -5.6834619129
 Si        -8.3653441646       -7.9137991380       -3.5533615561
 Si        -7.4376030916        7.4947496175        3.0069642459
 Si        -5.4624253142        7.2572812890        5.1739179857
 Si         0.3177878137        7.2309505737       -3.3519661896
 Si         6.1976760892       -8.3164404375       -1.9281280915
 Si         7.7560422415        5.1408664228        9.1380634136
 Si         8.9830964526       -5.9426341949       -4.6917425257
 Si         7.2747490819       -5.0004516400        9.5448122707
 Si        -2.1508729971        8.7181932415       -4.3942480612
 Si        -4.5398810224       -9.2588026225        5.3469412570
 Si        -0.7556443424       -9.4899013614       11.0601781528
 Si        -6.9378295830        2.2614067160       -8.2390143487
 Si         1.8552007297       -7.6193555149       -5.2672914017
 Si        -6.1595354834        7.5373655922       -7.2476803960
 Si         9.2350707246        5.0660597842       -4.3550123168
 Si        -7.5705266004        3.2991032735        7.0304645501
 Si        -0.8853572692       -6.9727267126        9.2138114438
 Si         8.9829218687        0.3688144722        5.7429209321
 Si         9.3518767457       -8.5763920235        0.8616409755
 Si        -5.1371054853        9.2736476116       -4.6746815030
 Si         0.1588503415        4.0808586490        9.3231505914
 Si        -2.6907383984        5.1160664039        8.4699653991
 Si         6.6542287346        2.7382943617       -7.5177608067
 Si         5.7917330656       -7.8434502735       -6.4485300150
 Si         2.7907757525        1.9398668208       -6.8406187142
 Si        -1.2191547049       -8.0981241599       -5.4326852781
 Si        -5.4811493075        2.0107167243       -5.4380096324
 Si         7.0150713623        6.3663546881       -1.2334275587
 Si         8.3945728249       -7.4121397788        3.7570529041
 Si         6.8576654768        7.7583747099       10.6857973775
 Si        -6.1853521755       -5.0751937560       -6.6359641820
 Si        -9.2549754353       -0.9843700828       -6.2083097691
 Si         0.7205975196       -8.8033845811        7.2856378349
 Si         8.1773809623       -3.3164723679       -1.6272185696
 Si        -4.2854989714        2.7661605288        9.5945196536
 Si         4.3406781380       -0.7029267222       -7.5184352467
 Si         0.7585453642        6.2010757714       -6.1681255325
 Si        -7.1229742947       -4.4446495647        7.8487040715
 Si        -2.5364344503        6.1602100550        5.6584011695
 Si         5.0331749562        8.3194350790        5.5882086486
 Si        -4.0381935337       -7.3251192018       -6.0972824233
 Si         7.3296988520       -9.7719247021       -4.5221214179
 Si         1.8308634692        9.1139106840        9.7532319806
 Si         6.8792872937        9.1031434228        0.2818746736
 Si         7.0489749968       -1.4909285384       -6.9874554042
 Si         0.0413858418        3.1514501002       -7.0755812514
 Si        -9.5349622754       -4.7207289971        2.9775262466
 Si        -3.4535814481       -6.3945800322       10.5186556684
 Si        -7.7872119699        0.5466762334       -4.0348381190
 Si        -7.6975027902        5.8505695299        0.4544363580
 Si        -6.3233924587       -9.0479081020        2.8661562637
 Si         6.5069663317        7.3325301471        2.8912093376
 Si        -1.6838113528        9.0321023294        6.4497817027
 Si         8.3279320241        3.5979841502       -0.4327312702
 Si         5.7202549310       -6.9041662095        5.2304181512
 Si         9.3097457584       -9.4478464027       11.0037341941
 Si        -9.8807120652        1.6662096470        8.2352415163
 Si        -9.2514704716        3.1402925100        4.4472485086
 Si        -5.8623487958       -1.8187200125        8.6352866633
 Si         9.2563038334        6.9489990610        7.0548413330
 Si         6.4989542442       -5.4978593270       -2.8900222904
 Si         9.8910315383        6.9233044115       -1.9340277133
 Si        -8.7964783845        2.9696635900        1.4727241866
 Si         2.4302182997        6.0292102657        9.4188165488
 Se        -2.4544716189       -2.1629280872        3.5924551875
 Se        -1.4258483932       -4.3489920842       -4.9905845655
 Se        -4.9422610244       -5.1626937730       -1.2544703647
 Se        -1.8537053832       -6.3323538295        2.4098143103
 Se         1.4210205132       -6.0788326073       -0.5881185018
 Se         1.7930526340       -8.6561074089        3.1387466953
 Se        -6.5751412192       -2.1886706007        2.2126556596
 Se        -3.8284363954       -1.4499112905       -4.3581748598
 Se        -4.9660065942        0.6087729543        0.1486521056
 Se        -1.9657023688       -0.9368846327        8.1562438725
 Se         3.7954776911       -1.5196110005       -1.0636931194
 Se        -2.4138114860       -2.9667521565       -0.3320593056
 Se         1.1156776818       -2.4061098366        1.5827037722
 Se         0.6116926720       -4.6157601975        5.5798120929
 Se         5.2228693938       -5.4784344397        0.6802137970
 Se         5.6198438689       -4.7293136398        5.0849531630
 Se        -2.0430180286        3.7170489067       -2.0018792192
 Se        -4.3174159935        3.9173005724        2.4596648746
 Se        -0.9635114477        1.7085545223        4.4310028762
 Se         0.0377576891       -0.0156535136       -2.8310639696
 Se        -0.9307379618        1.1084690436        0.7355125637
 Se         0.6188073923        4.4436310116        2.1901466894
 Se         1.0522926239        2.8628174427        7.6257670560
 Se         4.9834179891        0.5567863977       -3.6460026698
 Se         3.6723468751        1.7135623387        2.5683311664
 Se         1.2611887498       -0.8422125678        5.8585382189
 Se         3.6971729668       -1.4094715218        6.3542159989
 Se         7.7350096885       -1.9315788958        0.1653243264
 Se        -2.3155363049        7.6451281840        0.9538980557
 Se         2.7090550811        7.8464243188        1.0010899777
 Se         2.7285631858        3.2965319899       -1.6054655096
 Se         5.5086558881        5.4031023334        2.4138561834
 Se         6.5347066769        2.3722569786       -1.1572427271
 Cd        -6.7104620852       -3.6655954085        0.1733018808
 Cd        -4.0420929930       -3.9713473213       -3.4645792028
 Cd        -2.9205602836       -4.8275221262        4.1158149798
 Cd        -3.1211661640       -1.1739179258        5.8438491763
 Cd         3.2861309668       -4.1813126924       -0.6448245496
 Cd        -0.5144106113       -4.5976562268        0.5359018638
 Cd        -7.7070930812       -0.1808275303        0.6428713380
 Cd         1.0315756233        1.6250024888        2.3867240147
 Cd        -4.0125233567       -1.6004697110        1.5525433658
 Cd        -0.9156209190        1.1437387616        6.9897959330
 Cd        -1.2268001860       -1.8653197408       -4.1209553104
 Cd         5.0418338870       -1.3078578003        4.0172127596
 Cd         0.1039696718       -6.5451217138        3.8582098789
 Cd         3.1236195595       -4.0925296004        5.6469272226
 Cd         3.5863763974       -0.8616576322        1.4311088146
 Cd         3.0150577380       -6.8535011256        1.4294476566
 Cd        -1.6256173237        6.0868293201       -1.0201601193
 Cd        -3.3063892394        2.6453099725        0.2382271108
 Cd        -3.5241376480        2.1903454108        4.0297046824
 Cd        -4.3502196944       -0.6029143990       -1.9598584199
 Cd         0.1931574492        3.0172137154       -0.7246014854
 Cd        -0.4192227627       -1.2858125787       -0.3979554527
 Cd         0.2032413429       -2.3054836754        7.7973194221
 Cd         2.4972654064        0.1116364315       -3.1285248380
 Cd         6.2571640954       -0.2707832229       -1.2609911680
 Cd         0.3921791849        4.2150393429        5.1706749567
 Cd         5.4426991964       -3.3572968010        2.1905740680
 Cd         0.1254540903       -2.5838647811        3.9948666702
 Cd         2.1901413093        5.6780634961       -0.6715811533
 Cd         0.1896590933        8.0420917832        1.2003849395
 Cd         2.9054479471        5.8361359055        2.8675469138
 Cd        -2.0106597828        5.3683104154        2.3379097018
 Cd         4.3697798377        2.8114564273        0.4588709509
