402
 i =     9400, time =    18800.000, E =     -5882.4073283818
  O         6.8370111154        2.8944837688       10.1801552342
  O        -5.6614989844       -2.2946429113       -8.0443269953
  O         9.2597664269       -4.6068462450        6.3905261362
  O        -7.7721570023        8.4047149567        1.1664650270
  O         1.7023250226        9.7854069074       -4.4762632103
  O         8.1740346053        8.3471257413        2.5901428152
  O        -6.1738214983        8.5274376429        3.2903148617
  O         5.3406175255        7.4782029796       -5.6576838283
  O        -7.9787277008       -4.4121022279       -1.2230496641
  O         8.7525749993       -2.0453892379        5.3818870498
  O         9.2289383827       -0.8604227433       -3.0875253429
  O        -3.3403248722       -1.1086175256       -8.4288946592
  O         8.4557723695        0.1374444835       -7.1459576871
  O        -5.0195191544       -4.8443906017        9.0379035395
  O        -7.4300167413        0.1198970647        8.8742174027
  O        -6.4563664000        7.2437050692       -0.9082184041
  O        -0.1260549080       -6.1287519738        7.2789678488
  O        -6.3730289082        2.4020158676       -5.2534622656
  O        -1.8413584278        9.1846222834        5.7960756029
  O         8.1423063054       -4.0437675459       10.0801638117
  O        -8.0101818781       -5.3830677444        4.8839996633
  O         6.7411772176       -5.7038302103        3.4447499400
  O        -8.5621833751        0.8094382588       -8.2893862398
  O         3.9655252462       -8.3313693712        4.7788705734
  O        -7.7212887261       -1.8631299501       -3.9093300546
  O        -8.7647365605        8.2554136167        3.5555095128
  O        -2.9669012292        7.9718653351       -8.1032438100
  O        -6.8585091233        2.4593858309       10.0286289906
  O        -5.0630708619       -6.3100175258        5.6303607711
  O        -8.7167409865       -6.8830541798        6.7408081128
  O         0.6224688153        8.2532372677       -2.4702536630
  O         3.5397950525        3.6559050589       -6.0217351662
  O        -7.3054983183       -6.1885363033        2.5729228440
  O        -3.7978129226       -6.2035073669       -8.6251971521
  O         7.1022700908       -7.6034997710       -3.8564311057
  O        -6.9204291952       -3.1355835464        8.7064069582
  O         8.8796260566        7.2874667406        7.7043777584
  O        -3.9754501057        3.3189968892       -6.4143696481
  O         5.0554418323       -4.2628602714       -3.7631588687
  O        -7.0753959082        7.1050281831       -5.5097256012
  O        -5.7765124805        4.7913868690        9.7031911449
  O        -1.9822449636       10.8825418942        7.6948974450
  O         5.6022100544        3.6931152207        6.4301037036
  O         4.5710624627        4.5986476067        8.5749270911
  O         9.2669712319        2.8899063161        9.1388404789
  O        -2.4802987836       -5.2932003749        8.4933939716
  O        -7.7208609281        8.4569567455       -7.6450381101
  O         4.8129210806        1.3676102963        9.5195534742
  O         6.2069194125        9.6231917352        8.8526705058
  O        -0.2056060096        4.6488290096       10.0288837233
  O         6.1623432677       -6.2049794824        5.9670942521
  O         4.8743510543       -6.1615662700       -5.8730297242
  O        -3.8636087742        5.6534239923       -7.6171731743
  O         2.5799313688        9.0787395019        9.2667477295
  O         8.4175033262        4.3630849662       -7.8733558870
  O         0.7567826680        6.0171451337       -7.2617382050
  O        -8.6273712517       -0.8954373439       -6.2885924194
  O         9.4903642234        3.2197006236        4.3490289450
  O        -4.8076799605       -4.5053220653       -6.6811105369
  O         4.7124687270       -6.7475761849       -3.1527559065
  O        -8.4202353850        9.5811547305       -5.5112397100
  O        -1.8915823200       10.2332243334       10.3025959499
  O        -6.4851976702        8.5920298693        8.3643735829
  O         3.3289774403       -5.1632425842        9.7498219824
  O        -7.8585466918       -0.6554742928       -1.4657159511
  O        -6.1280165106       -3.9655499532        6.3775691169
  O         0.2753533022       -5.8071380349       -5.6508190646
  O        -7.1084732895       -3.1921308557       -6.1029537260
  O         6.5796387838        1.6882790931        7.6854540894
  O        -9.0159708369        1.7377265280       -5.8564619181
  O         4.1672188091       -3.3063401215       -8.1141820245
  O        -9.5152922184       -3.3711691258        0.6880551966
  O        -8.2622450599        5.8379858686        0.4824171594
  O         4.6488876381        6.0788998919        6.1427024723
  O        -6.8769377424       -9.0671733127       -1.3283319326
  O        -6.6165197980       -8.0943165276        8.0159326965
  O         4.0960812895        8.4820425118        5.2802991145
  O         6.3156939810       -1.5984190212       -7.5828660881
  O         3.3263849078        4.3101561071       -8.5449860739
  O        -1.0207917118        6.0462305397        7.8117737319
  O         6.5807317394       -4.9335983974        8.2131771243
  O        -5.6291260184        1.2957142376        7.0981983759
  O         9.8305260346        5.0748993151       -4.7474435213
  O        -5.7423409437       -4.4528465491        3.8779123389
  O        -7.6034693120       -8.7250352364        2.9616198257
  O         7.4305452920        1.8934281523        5.2171246777
  O         9.4829301371       -1.8567185903        2.8299000130
  O        -0.4086209067        8.2082251460       -7.7311453200
  O         7.1521016563       -7.5597386119        7.9390125339
  O        -7.6304124853        5.7087863007       -2.8195024306
  O         9.1915016355       -3.3980453329       -1.8616905125
  O         5.8346830561        7.1518457484       -2.9852048986
  O         9.0549555595       -4.9462433285       -6.8517132613
  O         5.9666576796       -2.6163450943        9.3956016686
  O         5.8714133707       -9.2535538778        6.2771813565
  O         8.8817422893        4.5035998005        0.4094840603
  O         8.1493355436       -2.7952285246        7.8829931044
  O        -4.9741381029       -0.9315819618        8.8642572235
  O         6.1874086065        3.7115235988       -6.6053597749
  O         6.4540881300        9.9853353573        1.2004859154
  O        -6.2623326088       10.1511314551       10.4085484397
  O         1.8289222903        8.8287527727       -6.9866005277
  O        -7.5304845263       -5.7609566106        8.7988016872
  O         7.2025289475       -0.8143304389        3.5278196041
  O         4.1298445148       -5.7202937069        4.3380305755
  O        -7.2946690498        6.3153143718        7.1185497526
  O        -8.2168146989        3.1766716311       -0.0859307139
  O         4.6464801122       -6.7457997352        8.1197489739
  O         8.9524140657       -5.6356863231       -0.3890074337
  O         8.9676753912       -6.4903509381        4.6901388489
  O         6.8306114344       -5.4209315404       -2.2382521641
  O         6.9846400766       -2.5681218623       -2.9469141230
  O        -0.3341457107       -8.0226042764        5.5455274885
  O         9.7508267919        7.2410810937       -6.3062315040
  O         7.1811226059        0.2010825037        9.9454554946
  O         0.5308991776       -8.8222155976       10.0466418708
  O        -2.4302770179       -5.7887199962       -6.3053294824
  O        -2.1793410752        9.8734447899       -6.5623007792
  O        -3.6207654503        5.8996294693        8.8180011648
  O        -6.9856572719       -5.3003137922       -3.6255337128
  O         7.5221806297        6.3621349169       -5.0229747790
  O         2.8413471870       -7.7399615124        9.6784321779
  O        -0.6814505141       -7.5937092176       -7.2417714591
  O         6.5168053572        9.6467681398       -5.1752917622
  O         5.8850346749        9.5723961616        3.6093013835
  O        -0.7394148501       -6.5106789225        9.8093330811
  O        -8.5320738587        8.6321361991        6.6596558809
  O        -0.7823894655       -2.0672499611       10.5754182946
  O        -8.5398326896       -7.4785261412        0.2001963278
  O        -5.5953682528        5.0899384244       -5.2199272072
  O         8.1441043640        3.6896176733        6.9124603074
  O        -5.3615423267        6.8375969733       -3.3495811742
  O        -0.0751505831       -4.0706762368        8.8301294275
  O         8.4230320564       -8.4573738902       -0.1893599974
  O         6.3948010819        8.8685316865       -0.9753523693
  O        -6.1807729403       10.6457341104       -3.9995827838
  O         8.7428163543        8.1410719920        5.2138288258
  O        -3.7337361371        8.2391607757        4.1638663562
  O        -4.3969642781        2.5335046445        5.2406125642
  O        -5.7283404327        9.8474923603       -6.4572775388
  O         8.9403417525       -8.3317573877       -5.3637498561
  O         7.3515105072        7.5483691332        9.9618298648
  O         2.1634086265       -7.7709021870       -6.2401259636
  O        -7.2482687165        8.4790931676       -3.0286702066
  O        -5.9042262456        0.2162496016       -8.2476824321
  O         1.9402241050       -6.7276926891        5.7195764730
  O         6.7173880107       -5.2407619678       -7.5732579085
  O        -8.2020924122        3.3178406504       -3.6752735550
  O        -5.1939018282       -7.6523807354        3.4498260032
  O         8.9014316540       -4.4720189558        2.9044522503
  O         4.1070023326        9.8390530561       -6.0736411448
  O        -8.0767626439       -7.2493841979       -5.5604890763
  O         3.1271646280        1.7212253532       -7.8333421917
  O         6.5872513276        6.0653638131        7.9056481757
  O         5.6590425667        0.8832061056       -7.4262570069
  O         2.4609226564       -5.2867190100       -7.2420872617
  O        10.1928449988        9.9675152716       -2.9621754014
  O        -8.7674424368        4.1676323741        2.4728574518
  O         5.0856236556       -6.9228504194       10.8180274135
  O        -6.4737362089        3.8667738758       -7.2424860270
  O         6.1899729762        9.0164156415       -7.8022303540
  O        -8.9320191379       -8.0437818948        9.1053062727
  O         4.0725088367       -0.8140537065       10.6267358047
  O        -8.0447551029       -3.5816886114        2.9676077836
  O        -3.7498811299       10.2664335557       -4.5258954539
  O         3.8535510573        6.7697705351        9.8104057634
  O        -6.3752521604       -1.2931165296        6.8251485341
  O        -5.2161363920       10.2447751372        5.4154022708
  O         7.6951917729        6.5022652755       -1.0379904997
  O        -6.3233982697        3.9137617138        6.3879538702
  O         0.4541537593        7.5028115813       -5.1529852846
  O         5.9651756458        5.2909862708       -8.7359901423
  O         5.3047445137        5.0682627116       -4.5887758548
  O         9.3835293259        4.8257858726       -2.2357302265
  O        -3.0520189437        6.8398389983        6.3609935837
  O        -1.6234367019       -7.6231349187       -4.8620173110
  O         1.0542747588       -1.7575260412        8.5628289283
  O         1.4819223588       -3.3622725199       10.7503119887
  O         8.2632596540       10.1767884055       10.1666161513
  O        -1.4902106756        4.2085868704       -7.2418934386
  O        -9.0207280119       -8.2156687446       -7.7201482427
  O        -2.9752802674       -7.7551085894        5.1918180041
  O        -7.9578381344        0.6757139391       -3.7675732279
  O         9.0734132311        5.9923697081        3.5589126609
  O        -4.2621545905       10.1711463249        8.6164575710
  O        -3.3539065138        3.5050251085       -9.0345808558
  O        -1.3476901728        6.9585289591        4.2532960528
  O         1.2028951686        3.4262594808       -7.4769923827
  O         8.4733281860        9.8183489911        7.1955730753
  O        -3.1088015084       -3.5960727688       10.4158128122
  O         1.0868264581        6.9539482186        9.2768060366
  O        -6.7994043727       -4.6273880248       -8.3637654664
  O        -8.5870152837       -2.7432656356        6.8118581163
  O        -5.9899650742        7.9206243673        5.7535939250
  O        -3.6414958693       -3.9031143426        5.5264352716
  O        -4.2402883712        3.3439567648        7.8859275441
  O        -8.4641233098        4.5182274329       10.6053457129
  O         7.6172181443       -4.4288543684       -4.5696257041
  O         8.5924118761       -6.5873892780       10.4459468484
  O         8.8011083257        5.4226338582        9.3543546976
  O        -6.0787805896       -7.9562709459        0.9907507030
  O        -8.6339503138        4.1307462145        7.3905873895
  O         6.1728796903       -7.9150033091       -1.2607120712
  O         6.8621904564       -7.6706452005       -6.6462288945
  O         8.7806933413       -6.8529018729        1.8981482411
  O         2.3553803063        6.6331002035        4.7295631937
  O        -9.4530352600       -5.5649279323       -4.3091849983
  O        -6.3613195894       -6.4668612628       -1.1623945603
  O         9.7956919187        7.3057676066       -3.7042242242
  O        -9.6243872933        1.6809303194        6.6167599307
  O         2.7671508045       -5.7147206935       -4.6542849330
  O        -9.6217173384       -3.0864471954       -5.2242138815
  O         9.4344071701        0.3859360180        4.3545365210
  O        -5.3998586654        7.7618481992       -8.2308815186
  O        -2.3358113676        8.2674684191        8.6816914347
  O        10.1614818491        7.8687553425       -1.0384304822
  O         1.3324828769       -8.5482322136        7.5805313686
  O        -7.9886277778       -7.4552015683       -2.9594386650
  O        -8.2515335386        5.1483079669        4.9368694169
  O        -1.1882888909        9.3098330065       -4.1302606426
  O        -4.7001485715       -7.1725459869       -6.0006076138
  O        -4.4316602362        7.3452880071       -5.7848883526
  O         8.0490184960        8.6321342642       -2.6443830385
  O         2.7537920325        7.3233117305        7.3394548086
 Si         3.1373735070       -6.9970241345        4.5475260162
 Si        -6.6167067132       -4.5674064351        9.3930327658
 Si        -4.2067277622        7.1895671653       -7.3725071691
 Si         6.4043396449        1.5634978650        9.3377765979
 Si        -9.5955676761       -4.2695379437       -0.6653872125
 Si        -9.3500455080       -5.8441310601        5.7148872986
 Si         9.1128502308        7.6568811227        3.7362672864
 Si        -8.2117773517        8.0948457121       -6.1728517324
 Si         4.0466839363       -6.6250529831        9.6064586219
 Si        -3.0920797332        4.1514391602       -7.4767996916
 Si        -9.0404052539       -8.4180473445       -6.1007310136
 Si         6.0131845712        6.5288560044       -4.5214165384
 Si         3.4145547861        7.1186996641        5.8274987245
 Si        -7.2167060986        0.9301295937       10.3443919445
 Si         8.1705370770       -5.2157779890       -8.2187911189
 Si         6.1679390637       -6.3327331416        7.5594762750
 Si        -7.4628203058       10.2986492318       -2.8981766799
 Si        -5.0095542646       -4.6396338042        5.3802721716
 Si         4.4399986496        5.2381181106       10.0776075698
 Si        -4.9878767585       -1.0581351403       10.5302713374
 Si        -7.0513475663        7.8815296183        6.9970404070
 Si         2.4768302512        9.9735123604       -5.9753012561
 Si        -5.6417857265        6.6434761699       -4.9448596201
 Si         5.1461007627       -2.1411965120       -8.5794420819
 Si         6.9239514657       -9.1218278177        7.5023721398
 Si        -7.3031948611       -4.9058076525        3.5593445939
 Si         5.0510989550        3.6945913055       -5.3521713714
 Si        -1.7870155732        8.9922296787       -7.7746855483
 Si        -8.2343989405       -2.2448900694       -5.4122313097
 Si         5.3650789271        5.1123873852        7.3110420045
 Si         4.3541159123       -5.6655773938       -4.3526749556
 Si         6.8693189960        2.7152226501        6.5328869755
 Si        -8.7841301094        4.7685611755       -3.3294915266
 Si         9.2411498920       -3.0263822279        6.6107703922
 Si        -6.7991440585       -5.1447370076       -1.9734690491
 Si        -2.2900896782       -2.3484484904       -8.2203933914
 Si        -6.6822946368        7.0539735798       -2.4897124089
 Si         9.3795524526        4.2104013265       10.1672254387
 Si        -7.9574950272       -7.1852694372        8.1753320930
 Si        -2.6664378202        9.8885515890        8.7255588245
 Si         0.4510710224       -2.7360891010        9.6192508367
 Si         8.6629179518       -1.0683076468        4.0317125629
 Si        -5.1619306054        2.8036573875        6.6589397476
 Si        -7.0176829493       -7.7323373782       -0.3224876287
 Si         2.8269407975       -4.2335946885       -8.4169546998
 Si        -5.9205731560       10.0387168526        8.8355006231
 Si        -8.4492915596       -0.6664253189       -2.9840793235
 Si         5.5271962775        8.9691439761       -6.3042237534
 Si        -8.1385880959       -6.4209994289       -4.1374212627
 Si        -7.6358293580        8.9933819419        2.6592705936
 Si        -5.2530791331        8.7363882241        4.6278619916
 Si         0.4673597167        8.7986472766       -3.9822040305
 Si         6.2751371671       -6.9936645644       -2.5802220255
 Si         7.8444058121        6.5665294085        8.7558679530
 Si         9.0505962138       -4.5520420410       -5.2729867320
 Si         7.1782848169       -3.5869265552        8.9041814695
 Si        -2.1801989167       10.2521134193       -4.9436824707
 Si        -4.6292898131       -7.7311540720        4.9203510183
 Si        -0.6219227783       -7.8837085568       10.5920780615
 Si        -6.9382247168        3.9682473498       -8.7731294072
 Si         1.9097898086       -6.1549954790       -5.9432584215
 Si        -6.2652810317        9.0971237248       -7.7941457262
 Si         9.1195184182        6.5391825078       -4.9868036098
 Si        -7.6073199721        4.8805402823        6.4153668445
 Si        -0.8816842621       -5.4631598135        8.5471854936
 Si         9.0995268043        1.7943574184        5.0949212639
 Si         9.2375229278       -7.1568633153        0.3289146184
 Si        -5.1926799338       10.7724620607       -5.1740406605
 Si         0.3191448664        5.5758538027        8.7425007657
 Si        -2.5720122167        6.8155212212        7.9564622385
 Si         6.7989365876        4.0583063487       -8.0517147182
 Si         5.8065560150       -6.5023627078       -7.1924315283
 Si         2.8155281843        3.2970183636       -7.4296969897
 Si        -1.0633125250       -6.6078357970       -5.9939912007
 Si        -5.5505950913        3.6388410821       -6.0035629803
 Si         6.9840418462        7.7023906570       -1.9310571458
 Si         8.3906955337       -5.9277204524        3.2226775817
 Si         7.0546254023        9.0953288517       10.2198014711
 Si        -6.0921506469       -3.6564688395       -7.2965018165
 Si        -9.3473185823        0.4270229969       -6.8397112346
 Si         0.6936024707       -7.3561526413        6.5947041352
 Si         8.3536875469       -1.9561235890       -2.1399620594
 Si        -4.2344589782        4.3564175071        9.1990843032
 Si         4.2971635945        0.7515108255       -8.3489029720
 Si         0.7009652905        7.5796085259       -6.7302855581
 Si        -6.9577256975       -2.7923809103        7.0812510603
 Si        -2.4459514893        7.8053030045        5.0997818212
 Si         4.9658716470        9.7839658062        4.9536484050
 Si        -3.9942757726       -6.0124584934       -6.8941844154
 Si         7.3583347960       -8.3932795203       -5.2389908385
 Si         1.8496502373       10.4944269929        9.0637522256
 Si         6.8595019870       10.2881595367       -0.3477818775
 Si         6.9221444975       -0.0852551589       -7.8147249557
 Si         0.0865429907        4.5977346193       -7.8087275004
 Si        -9.5045004982       -3.2879074670        2.3799725417
 Si        -3.5728141393       -4.9381911050        9.6802232248
 Si        -7.8659156282        2.0177296980       -4.6816187180
 Si        -7.9407554921        7.3365824450       -0.1109328964
 Si        -6.5623003416       -7.5789021970        2.5123507912
 Si         6.5706996709        8.8304994946        2.3439571539
 Si        -1.8480570389       10.8197926246        5.9979437643
 Si         8.2847959800        4.9645196035       -1.0224242910
 Si         5.6867085674       -5.2834683728        4.6092489737
 Si         9.3551197746       -8.0434805464       10.3394384351
 Si        -9.8175822399        3.0362479790        7.5376826320
 Si        -9.3656350619        4.6644446583        3.8659263655
 Si        -6.0581398315       -0.0882251520        7.9437926448
 Si         9.2318227752        8.4487436621        6.6574983625
 Si         6.6562270443       -4.1597985516       -3.3139409820
 Si         9.7170395299        8.4932199723       -2.6401184417
 Si        -8.8921021615        4.3023794098        0.8308718382
 Si         2.6100635921        7.4850553594        8.9371031501
 Se        -2.4330299292       -0.4278510948        3.2101527203
 Se        -1.8752238168       -2.6128241684       -5.9235579771
 Se        -4.9913936765       -3.6130547766       -1.6083398963
 Se        -1.8968119190       -4.6488152945        1.8058804849
 Se         1.6265109676       -4.0412389857       -1.0761455323
 Se         2.0332120726       -6.9820886385        2.4826629406
 Se        -6.3286994969       -0.5031914772        1.7521453127
 Se        -4.3375931940        0.0984807400       -4.9740985908
 Se        -4.6383717093        2.1207530949       -0.3426628441
 Se        -2.0636341934        0.3340026503        7.5521927421
 Se         4.0582858329        0.4097660118       -1.1299476676
 Se        -2.3337876654       -1.2138289729       -1.1713229762
 Se         1.3804691823       -0.5515577062        0.9007014447
 Se         0.6995936174       -3.0597800740        4.7385510946
 Se         5.3455814095       -3.8221885775        0.2925640772
 Se         5.6619498328       -3.1239294633        4.9386977239
 Se        -2.0830976805        5.0857535733       -2.4490601641
 Se        -4.0801541065        5.4140659679        2.0105624262
 Se        -0.7843492752        3.0770622751        4.4173554054
 Se         0.0849237992        1.5693843021       -3.7426799745
 Se        -0.8410114798        2.4671645518        0.6015914818
 Se         0.7045601565        5.8525064490        1.5957711443
 Se         1.4479587674        4.1979418452        7.4270084290
 Se         5.2233456811        1.7173161618       -4.2321709684
 Se         3.8891175018        3.3999304003        2.4786614527
 Se         1.6263754494        0.9590525174        5.2582726713
 Se         3.6896616288        0.1502134286        6.1395153726
 Se         8.1164326213       -0.7884083129       -0.1389557967
 Se        -1.9475118618        8.9640460689        0.3318420496
 Se         3.0065559423        9.3406452582        0.3728850528
 Se         2.8949872018        4.9100272480       -2.0411008052
 Se         5.6516577101        6.8978892933        2.1174756926
 Se         6.5456007609        3.7229377805       -1.7063467619
 Cd        -6.3687854125       -1.9086345884       -0.3568318483
 Cd        -4.1692280723       -2.1667944170       -3.5971982481
 Cd        -2.5572702760       -2.9345867036        3.7439196024
 Cd        -3.2825950031        0.6267318287        5.3216121629
 Cd         3.4035504132       -2.1141200027       -0.5640635491
 Cd        -0.7047058501       -3.1012251631       -0.1677634940
 Cd        -7.5480493641        1.1926419284        0.1698412172
 Cd         1.2889239907        3.1999076248        2.1120282422
 Cd        -3.8386217686       -0.1123274542        0.7917529306
 Cd        -0.4970983972        2.3620121199        7.1253528111
 Cd        -1.5358701738       -0.1486399540       -5.0135607668
 Cd         5.1199098775        0.3843443239        3.9022527413
 Cd         0.2115381886       -5.2267069794        3.1579846385
 Cd         3.1630701097       -2.5314443638        5.2365134767
 Cd         3.5858872388        0.6961493070        1.5695921577
 Cd         3.2486981716       -5.2328673192        0.9353077163
 Cd        -1.5367421776        7.4619868416       -1.8281713951
 Cd        -3.0289490994        4.1863277464       -0.0152923118
 Cd        -3.2179835800        3.9115041971        3.8419599588
 Cd        -4.4712183631        1.3467713058       -2.7471912978
 Cd         0.4481973916        4.3248083897       -1.2492707170
 Cd        -0.3764803358        0.4838335952       -1.1724402060
 Cd         0.2210261404       -0.9669477734        6.7460573726
 Cd         2.7679837673        1.2661238197       -3.4072197833
 Cd         6.7088401167        1.1480081204       -1.2598462410
 Cd         0.2549914507        5.5961409265        5.0869771559
 Cd         5.9641729999       -1.5999617899        1.7269237107
 Cd         0.3533130922       -0.6102881375        3.2805007317
 Cd         2.3828095054        7.2942060614       -1.0296193583
 Cd         0.5745078342        9.4598606503        0.2580860684
 Cd         3.0454698261        7.0834397626        2.5029697324
 Cd        -1.8438575848        6.9211446210        1.9625837254
 Cd         4.5384220012        4.2702481900        0.0559753894
