402
 i =     8300, time =    16600.000, E =     -5882.3607848483
  O         6.5854324950        2.4967945477       10.4430331479
  O        -5.4792996370       -2.7335475388       -7.6916053245
  O         9.1158398310       -4.9005514445        6.3376643896
  O        -7.7779353988        8.2602875697        1.3588093661
  O         1.3822460534        9.4062189688       -4.2805723967
  O         8.2123487617        7.8919725322        2.9833005373
  O        -5.9667873012        8.1427037296        3.3880942614
  O         5.3012204540        7.1475572517       -5.4580204871
  O        -7.7614520226       -4.5804758577       -0.7108943864
  O         8.9997575786       -2.2079439396        5.7217348878
  O         9.5143495695       -1.4112278656       -2.6846631126
  O        -3.2266987466       -1.4116629121       -7.9329679724
  O         8.4233261118       -0.0965371990       -6.6562169292
  O        -5.0591079588       -5.3241975639        9.5822312486
  O        -7.2734644784       -0.3121979958        9.2241919134
  O        -6.6157997900        6.6420284497       -0.5852087054
  O        -0.0806838237       -6.3826109444        7.4939440587
  O        -6.3743064805        2.0233632048       -4.7123737250
  O        -1.6034135526        8.7753776750        5.5899916640
  O         8.5561549963       -4.1917138757       10.5086872838
  O        -8.0084381644       -5.6986992528        5.2322181759
  O         6.7708010343       -6.5578847627        3.7143827397
  O        -8.5033976969        0.2983893615       -7.8442254626
  O         3.7071122081       -8.9678615267        4.8981364901
  O        -7.5268198448       -2.0973705931       -3.6135531768
  O        -8.6165322638        7.6980702281        3.7290201777
  O        -3.2256077167        7.9452442254       -7.6666632699
  O        -7.0286736600        2.0395632951       10.2279978357
  O        -4.7816240292       -6.8476463861        5.9044097361
  O        -8.8974932009       -7.2376703943        7.0562159988
  O         0.5064025771        7.7606169893       -2.2847463847
  O         3.5269026717        3.1457353780       -5.7871413022
  O        -7.1479587160       -6.6315229192        2.7281911443
  O        -3.7127485303       -6.5165839476       -7.9731201272
  O         7.0676096505       -7.9235835402       -3.3387470490
  O        -6.9329593910       -3.6110879621        9.0465319960
  O         9.0107590324        6.9342909708        8.0860009325
  O        -4.0857619605        2.9585415773       -6.0744188590
  O         5.0095040268       -4.4338010827       -3.6249807942
  O        -7.1366224607        6.8933837768       -5.1677803078
  O        -5.9292147125        4.3811943488        9.9893240626
  O        -2.0908117122       10.3112619197        7.7780286854
  O         5.7406289775        3.4287104350        6.6539699977
  O         4.5467369312        4.2679568774        8.7317029630
  O         9.4539964715        2.4220710673        9.5796293902
  O        -2.5204126261       -5.5833527467        8.9835091901
  O        -7.8934347916        7.9412482467       -7.4478075352
  O         4.6821787131        0.7644244574        9.9296326437
  O         6.2129039378        9.3511163382        9.0747499221
  O        -0.2037424789        4.2811041354       10.4285046701
  O         6.1746318498       -6.4055313576        6.3705176125
  O         4.8654273024       -6.0564136936       -5.5014066680
  O        -3.6352321774        5.3861925389       -7.2026369757
  O         2.4463059780        8.6679799844        9.6388128406
  O         8.2980936207        3.7118554612       -7.5250673466
  O         0.6441961022        5.5497263383       -6.7788202830
  O        -8.7141660139       -1.4308694643       -5.9095392812
  O         9.2504542455        2.9076318227        4.6980339534
  O        -4.9965508863       -5.0203167827       -6.2554986287
  O         4.6227827464       -6.9786949356       -2.8775447861
  O        -8.3083184651        9.1565074818       -5.3116275262
  O        -1.8310054322        9.8047001762       10.4949297917
  O        -6.1928457574        8.1582341271        8.5473040718
  O         3.1352047183       -5.5806421533       10.2051302044
  O        -7.7495296360       -0.9952041714       -1.0732633083
  O        -5.8009341859       -4.2956024938        6.6598721326
  O         0.1155253743       -6.1381801972       -5.3082192945
  O        -7.1915200420       -3.5301430400       -5.7676217955
  O         6.3251016293        1.3023753728        8.0908994773
  O        -8.9023852287        1.2463690762       -5.4428578206
  O         4.3023018161       -3.8653748593       -7.5614445329
  O        -9.6599731516       -3.7635536014        0.9936997162
  O        -8.2422433173        5.5274928430        0.9376100541
  O         4.5321828391        5.4807819106        6.3663199163
  O        -6.6274874296       -9.4226717096       -1.1950025685
  O        -6.8859366387       -8.4732776181        8.3387196745
  O         4.5718067246        7.9275115368        5.6430380502
  O         6.5658747215       -2.0665852971       -7.2225183959
  O         3.3377857170        3.6478958148       -8.3664410559
  O        -1.1598384805        6.0239042945        8.5490596428
  O         6.9761503402       -5.2063105419        8.6180221109
  O        -5.5254799794        0.7805424212        7.6107856321
  O         9.7769762160        4.6074837508       -4.5022836771
  O        -5.6354723181       -4.8775006583        4.1882779989
  O        -7.4519096079       -9.1772801036        3.1140862459
  O         7.4290180920        1.4728781905        5.7324247468
  O         9.7065231274       -2.2259406002        3.2064219250
  O        -0.7052610308        7.4494481531       -7.6390314113
  O         7.1894197681       -7.8767569881        8.1935885405
  O        -7.7112478395        5.3878103864       -2.7030509326
  O         9.2666582454       -3.8618838271       -1.6390547470
  O         5.9964167682        6.8654898640       -2.7617501015
  O         9.1332657265       -5.4798081570       -6.3616353560
  O         6.1454329743       -3.0259334950        9.8946605639
  O         5.8356857997       -9.3533599206        6.5989421772
  O         8.8157541152        4.3697032278        0.7390182127
  O         8.5025080611       -3.0288495963        8.1993516800
  O        -4.9192884027       -1.3636224166        9.3562894060
  O         6.0937444561        3.1415413895       -6.3132305722
  O         6.6849968803        9.6843534503        1.6198663839
  O        -6.4469118904        9.7624839847       10.5584374196
  O         1.6043708851        8.4118387795       -6.7757098797
  O        -7.7433256300       -6.1143920976        9.1962511001
  O         7.3201548598       -1.2560429486        3.8492293137
  O         4.2211097512       -6.4184288855        4.5582474824
  O        -7.1159994304        5.8385586303        7.6685444025
  O        -8.3602281111        2.7863205484        0.2744637675
  O         4.9032115315       -6.8638854373        8.6005089058
  O         9.3152836595       -6.0815106112       -0.1831577760
  O         9.1506705886       -7.0974167991        4.7549161029
  O         6.6657118029       -5.6373440439       -1.9799270896
  O         7.0604232107       -2.9094996095       -2.6256634377
  O        -0.3474433099       -8.3177322886        5.9107477410
  O         9.6365740179        6.8857694887       -5.8424055532
  O         7.2387656904       -0.0638726808       10.2735771060
  O         0.7768829122       -9.1159811458       10.8824302881
  O        -2.6381635044       -6.0855540338       -5.7005014385
  O        -1.7818009489        9.3921428771       -6.2483202811
  O        -3.8340536922        5.4671212370        8.9771740059
  O        -7.0633666581       -5.7264633354       -3.3439905475
  O         7.4739641197        6.0077838207       -4.7426814820
  O         3.0527919423       -8.1674093055        9.6323020450
  O        -1.0525740382       -7.6080557873       -7.0937341677
  O         6.2503154236        9.4342182200       -4.9050709197
  O         6.0997701618        9.3614221262        4.0341141670
  O        -0.6643045394       -7.3206538680        9.7089060420
  O        -8.4974655638        8.2209688717        7.0437533918
  O        -0.7694488644       -2.4794468052       10.9540164695
  O        -8.4619755256       -7.9133860356        0.4372552533
  O        -5.8400041069        4.6897070985       -4.9808909363
  O         8.0789151560        3.2689205147        7.6422548443
  O        -5.3540833471        6.4684223538       -3.0950880861
  O        -0.0258011586       -4.7300802545        9.5625642044
  O         8.3613243213       -8.6273887574       -0.0402050059
  O         6.1465227545        8.6327040709       -0.6069089162
  O        -6.3181828553       10.1883636275       -3.8215640384
  O         8.8464137058        7.6800627105        5.4708507567
  O        -3.7922317742        7.7767334498        4.5927491525
  O        -4.3422716723        2.1644161471        5.6435973411
  O        -5.8020005710        9.3394745414       -6.3064100923
  O         8.7679095347       -8.9175199194       -5.1190701031
  O         7.3784909851        7.2391460498       10.1995654378
  O         1.9221137407       -8.1342990266       -6.0769198075
  O        -7.2533079483        8.1350728455       -2.6711284445
  O        -5.7761910530       -0.1073689793       -7.9043018318
  O         2.0660834808       -7.2907781226        6.0720752139
  O         6.7271491239       -5.4429747456       -7.4262859605
  O        -8.2622836955        2.9296844062       -3.2059062986
  O        -4.9318534317       -7.9708732957        3.4946656854
  O         8.8843016369       -4.9586819402        3.1932084410
  O         3.9186386409        9.4918826651       -5.7043738620
  O        -8.1283159165       -7.5490034120       -5.3434583645
  O         2.9767936223        1.1026300940       -7.4023609370
  O         6.5621424342        5.7358455612        8.2259003031
  O         5.7037911897        0.3960411603       -7.1242833489
  O         2.2517860159       -5.4292625626       -6.7589483915
  O        10.3118429249        9.5324781398       -2.6402927991
  O        -8.7388921504        3.6553764494        2.7294114427
  O         4.8368151210       -7.2137897144       11.3913423985
  O        -6.6060359016        3.3043636296       -6.9461500536
  O         5.7283825730        8.8243459745       -7.5399851822
  O        -9.3258009996       -8.3624067738        9.3150534042
  O         4.1368554250       -1.3680138080       11.0812502837
  O        -8.0080470942       -4.2179528120        3.0985504451
  O        -3.7048064443        9.8632645742       -4.5996523431
  O         3.7605605734        6.2572189075       10.0978306938
  O        -6.2838071305       -1.7044142035        7.1900291429
  O        -5.1161342019        9.8587751643        5.4991422333
  O         7.4543852565        6.2122250315       -0.6713524415
  O        -6.4952240184        3.2916845363        6.9864660860
  O         0.1051914903        7.1779117747       -4.8983106571
  O         5.7698722345        4.7817964112       -8.3098368716
  O         5.0658857047        4.7773190148       -4.4253198318
  O         9.4213448002        4.5536822688       -1.8210238330
  O        -3.0048043439        6.7231788997        6.7731446085
  O        -1.3672291626       -8.1124732555       -4.4617459100
  O         0.8243094659       -2.4047738639        8.7035749960
  O         1.7112095048       -3.4429414629       10.9887707984
  O         8.0505640632        9.7738899841       10.7479608081
  O        -1.5686914929        3.8475757487       -6.7745880143
  O        -9.2447296672       -8.7432357966       -7.3335121470
  O        -2.8384315815       -8.3656994750        5.2361140419
  O        -7.9260580179        0.4549958494       -3.2259276162
  O         9.1769078360        5.6036097265        3.9968114487
  O        -4.3635805505       10.1459395962        9.0736075549
  O        -3.4155784532        3.3869964833       -8.7207737606
  O        -1.5550440971        6.3182714283        4.4143316919
  O         1.1533257488        3.0520679112       -6.8904218936
  O         8.4038040157        9.3756174405        7.4663131858
  O        -3.0643823972       -3.9322422163       10.8768876320
  O         1.0453247727        6.5766483380        9.5239075256
  O        -6.9433027854       -4.7920184907       -8.0397309197
  O        -8.4116066298       -3.3453302249        6.9921128599
  O        -6.1562097526        7.4492755780        5.8746882023
  O        -3.4145257045       -4.4774579601        5.5999362798
  O        -4.3107308981        2.9421356577        8.2363056702
  O        -8.5587414264        4.2315102302       10.9408808695
  O         7.5420125171       -4.7920441232       -4.3179802273
  O         8.6366681933       -6.8914202007       10.9007757593
  O         8.6930231191        5.0189972058        9.6777685658
  O        -6.0559753433       -8.4079851450        1.1907428651
  O        -8.8266334871        3.9900598584        7.8120704205
  O         5.9672927700       -8.1125613701       -0.8509821956
  O         6.7685093536       -7.7346800039       -6.0824740856
  O         8.9770098140       -7.3195574254        2.1575563629
  O         2.2671191418        6.6063860581        5.2053539327
  O        -9.5926747442       -6.0560003170       -3.9578587753
  O        -6.1964057030       -6.7716249546       -0.8574177771
  O         9.4990028845        6.8916257209       -3.2424614325
  O        -9.5080525651        1.4509493064        6.8813055644
  O         2.5779372083       -6.0622411535       -4.2841472231
  O        -9.5582734616       -3.5296593728       -4.6501631924
  O         9.4563577562        0.1784021731        4.4820362525
  O        -5.5352279130        7.2684395188       -7.9927253736
  O        -2.7536764602        7.9469502372        9.0283184694
  O        10.2009665693        7.5028542012       -0.7687417986
  O         1.0115054005       -8.8896255861        8.1427595137
  O        -8.0989717585       -7.8479290624       -2.5949156717
  O        -8.1166340085        4.6002193104        5.3659255904
  O        -1.3446769194        8.8807153621       -3.6572506377
  O        -4.9593702565       -7.5861778521       -5.7031963974
  O        -4.4726940340        7.0207920073       -5.4670784642
  O         8.1160208900        8.4698331557       -2.0491758767
  O         2.8905786535        7.0621100985        7.6794667690
 Si         3.0291555733       -7.5160796383        4.7296354471
 Si        -6.6471550071       -4.9987262122        9.7787209523
 Si        -4.2710025835        6.8651327105       -6.9979235404
 Si         6.2577504397        1.1616174495        9.6912434165
 Si        -9.4414041270       -4.6301941240       -0.3975008980
 Si        -9.3805920572       -6.2449696612        5.8489526524
 Si         9.2326739109        7.2160812889        3.9941835363
 Si        -8.3114676482        7.6738159354       -5.8994059253
 Si         4.0375640074       -6.8492982015        9.9732043651
 Si        -3.1745850070        3.8066439997       -7.1656997281
 Si        -9.1139399313       -8.8235149965       -5.7570730465
 Si         5.9524237037        6.1768290452       -4.2969545074
 Si         3.5615812611        6.7745400649        6.1846573380
 Si        -7.1631851929        0.4694405880       10.6861145982
 Si         8.3281806565       -5.4376957046       -7.7892313808
 Si         6.3373083628       -6.4917087339        7.9749678430
 Si        -7.4413043755        9.8694533219       -2.6653951064
 Si        -4.8512703762       -5.1130104258        5.6364904136
 Si         4.3182980383        4.7522184964       10.2835356869
 Si        -4.8395165118       -1.4045060082       10.9899297560
 Si        -7.0110089801        7.4306682134        7.2653714221
 Si         2.2564712679        9.5514796995       -5.6787962338
 Si        -5.7247328315        6.3006678697       -4.6706990824
 Si         5.2250789019       -2.5483106040       -8.1019638021
 Si         6.8919204023       -9.3557979996        7.7740989889
 Si        -7.1762985255       -5.3327733764        3.8036471752
 Si         4.9846966781        3.2066545564       -5.0573886542
 Si        -1.8102162535        8.5523707238       -7.6012901197
 Si        -8.2453925097       -2.6366905577       -4.9987695062
 Si         5.3836419139        4.7772305744        7.5037894308
 Si         4.2376210976       -5.8460993384       -4.0153280833
 Si         6.8986609440        2.3576704455        7.0005393944
 Si        -8.9110335526        4.3763537191       -3.0215990240
 Si         9.3823188906       -3.3752750747        6.7974779455
 Si        -6.6625001648       -5.4222373132       -1.6748669880
 Si        -2.2234879869       -2.7253324606       -7.7153391163
 Si        -6.7609986213        6.6556990409       -2.2504546056
 Si         9.2863655182        3.8133705337       10.5483087529
 Si        -8.1718538354       -7.5301257521        8.5091822238
 Si        -2.8550498794        9.5030592348        8.9855622446
 Si         0.4310847671       -3.1991921934        9.9873470764
 Si         8.8549822101       -1.3720065380        4.3242273687
 Si        -5.1811128651        2.2517685932        7.0212619612
 Si        -6.8847778062       -8.1410411592       -0.1614802437
 Si         2.8587462675       -4.4934427508       -7.9802514960
 Si        -6.0131858020        9.7320770813        9.0142667741
 Si        -8.2913049976       -0.9917569914       -2.5862166280
 Si         5.2944875686        8.6455665814       -5.9768033111
 Si        -8.1247788689       -6.8320101643       -3.8241429689
 Si        -7.4829458559        8.5695055515        2.9069911237
 Si        -5.2553294646        8.3213364947        4.8027650581
 Si         0.2214796569        8.3333527961       -3.7703399971
 Si         6.2023350256       -7.1805509985       -2.2249859208
 Si         7.9432445589        6.1950455356        9.0199421734
 Si         9.0827136577       -4.9752253165       -4.8136237320
 Si         7.4687241455       -3.7611809376        9.3031035225
 Si        -2.0985107595        9.8610035900       -4.6948954260
 Si        -4.4167564796       -8.1688943259        5.0289731861
 Si        -0.6206694814       -8.2704279481       11.0047810470
 Si        -7.0634026405        3.5545503084       -8.4869679984
 Si         1.7783059212       -6.4966219265       -5.6677781796
 Si        -6.4030179335        8.6248241777       -7.6436586583
 Si         9.0500094724        6.1292923175       -4.5665537085
 Si        -7.5928412592        4.5062321388        6.8837338772
 Si        -0.8449734425       -5.9368859144        8.8920388076
 Si         9.0000050827        1.4546384077        5.4725802179
 Si         9.3972076552       -7.5550666252        0.5789800741
 Si        -5.2229409034       10.2523239882       -5.0600428978
 Si         0.1615305290        5.2649164317        9.1643777420
 Si        -2.7526558998        6.4523902494        8.3286785552
 Si         6.6966961124        3.5921213614       -7.6884622676
 Si         5.8064768931       -6.6249760466       -6.7696408254
 Si         2.7562043025        2.7326700803       -7.1550588283
 Si        -1.2380283180       -6.9106618020       -5.5903929623
 Si        -5.7211898451        3.2136180405       -5.6339991317
 Si         6.9629608842        7.5075360044       -1.5460040034
 Si         8.3646436981       -6.4747749270        3.4110959932
 Si         6.7946951361        8.7426662199       10.5129998995
 Si        -6.0675220293       -4.0198270086       -6.8906769473
 Si        -9.2952532591       -0.0091144162       -6.4379893555
 Si         0.7779486897       -7.8014647431        7.0035947320
 Si         8.4416201265       -2.4095069049       -1.9184473186
 Si        -4.4306629328        3.9906268517        9.4742444017
 Si         4.2817449937        0.2292666254       -7.9967742901
 Si         0.5107043234        7.1428209962       -6.4957133553
 Si        -6.8192022204       -3.2559848598        7.4440599854
 Si        -2.4262416533        7.3421869672        5.4000542447
 Si         5.0208997834        9.4869670852        5.2728775016
 Si        -4.1064966621       -6.3532006304       -6.4073585780
 Si         7.2450970610       -8.6345211863       -4.8013115125
 Si         1.8182470184       10.1957294620        9.5531254928
 Si         6.7973753335       10.0750490682       -0.0167086226
 Si         7.0626188176       -0.4532412738       -7.5180209110
 Si        -0.0204689617        4.1309917454       -7.3470976183
 Si        -9.4806595931       -3.7571834822        2.6435585789
 Si        -3.5580112866       -5.3303522437       10.1738294098
 Si        -7.8599339064        1.7465606702       -4.1756271064
 Si        -8.0497308609        6.9990813315        0.2523100085
 Si        -6.2903096084       -7.9822233632        2.7019047921
 Si         6.6864277550        8.4793996814        2.7719151330
 Si        -1.6916343945       10.3400541871        6.1254292470
 Si         8.1687200034        4.7071392472       -0.7268215113
 Si         5.7575875186       -5.8822635828        4.8225755715
 Si         9.2236358817       -8.4210101338       10.6772663357
 Si        -9.8334616468        2.7329773173        7.9538235293
 Si        -9.2846198791        4.2392928265        4.1972806025
 Si        -5.9862887369       -0.6282304059        8.3367827457
 Si         9.2915971992        8.1200714386        6.9720624491
 Si         6.5718908415       -4.4180300075       -3.0769283500
 Si         9.7200453065        8.1230529766       -2.2272209779
 Si        -8.9284302363        3.9955237632        1.1191782961
 Si         2.5884760191        7.1366827536        9.1997426738
 Se        -2.2084052882       -0.8049329731        3.3584037436
 Se        -1.7494893972       -3.2549138181       -5.3909701577
 Se        -4.8537717065       -3.9397054401       -1.7729128953
 Se        -1.8744984745       -5.1123123458        2.2562251612
 Se         1.4353596412       -4.8630334770       -0.8789965076
 Se         1.7135805998       -7.3140165919        2.8959195129
 Se        -5.9870183320       -1.1872679593        1.9200020467
 Se        -3.8434883396       -0.1336683313       -4.7596730009
 Se        -4.8051623152        1.7642840637       -0.2239762054
 Se        -2.0941325043        0.4329216838        8.1036936313
 Se         4.0766133802       -0.3997771769       -1.1064634111
 Se        -2.1597062248       -2.0520882043       -0.6995487241
 Se         1.5280790566       -1.5177066414        1.1856310236
 Se         0.8215343216       -3.2544008059        5.2192633625
 Se         5.2178395431       -4.6797283522        0.8284360219
 Se         5.8803338745       -3.6792806172        5.0091274151
 Se        -1.8110199713        4.7717292374       -2.3234319991
 Se        -4.1072441623        5.2001953042        1.9582219451
 Se        -1.0328123130        2.7813223310        4.5710442385
 Se         0.2987306765        0.9249486800       -3.1425487424
 Se        -0.6949501489        1.9753514426        0.3965320701
 Se         0.7470439042        5.4534628714        1.9703627979
 Se         1.2429839175        4.0372812453        7.5557931047
 Se         5.3139241355        1.2908307407       -3.9695499119
 Se         3.4586921509        2.4685420207        2.5371903087
 Se         1.9498975407        0.6052255966        5.3416786422
 Se         4.0352277552       -0.3136469094        6.1470899163
 Se         8.1186792277       -1.1667077602        0.0588363227
 Se        -2.4520502539        8.6453867567        0.6251483324
 Se         2.4790861894        9.0702652538        0.9372080679
 Se         2.8545177984        4.5748455243       -1.6376871547
 Se         5.2943702724        6.6500598046        2.4598127471
 Se         6.4116230030        3.2566290223       -1.1547761606
 Cd        -6.2315573043       -2.4869219112       -0.2158445163
 Cd        -4.0490383096       -2.5376737014       -3.8748079594
 Cd        -2.6515078757       -3.3482214198        4.0126929334
 Cd        -3.0193642639        0.1801119960        5.5452826157
 Cd         3.4705782551       -3.0673225189       -0.8583239902
 Cd        -0.4137876920       -3.5920138889        0.7441430626
 Cd        -7.1414590005        0.8105411241        0.6559464297
 Cd         0.9046055113        2.6269843116        2.3002873030
 Cd        -3.7457062371       -0.7189280554        0.8792490299
 Cd        -0.9144068279        2.4994240623        7.1883608893
 Cd        -1.0385773241       -0.5538138476       -4.8441018079
 Cd         5.4725197900       -0.1749852374        3.9376860618
 Cd         0.2184140839       -5.4120795376        3.8822438723
 Cd         3.5413772593       -2.9368185244        5.5543970330
 Cd         4.0702368746        0.1061986649        1.5644447302
 Cd         2.8074323036       -5.5371743250        1.1482078889
 Cd        -1.6728182077        7.1295690839       -1.3376570075
 Cd        -3.0423250768        3.8843991007       -0.0325091768
 Cd        -3.4065810696        3.6212968674        3.9308053123
 Cd        -4.4429107965        0.9097270730       -2.5818411955
 Cd         0.3870956831        3.8095059171       -1.1607093168
 Cd        -0.0929189555       -0.4453289889       -0.6515425327
 Cd         0.2599296100       -0.7884115718        7.3367461862
 Cd         2.9242402803        0.8627452069       -3.0798552699
 Cd         6.7035823011        0.6120503410       -1.2025564526
 Cd         0.4545944607        5.1255865835        5.1128080972
 Cd         5.9942932127       -2.3862581706        1.9515278137
 Cd         0.5389375402       -1.1504191405        3.7008696629
 Cd         2.2084800447        7.0835906554       -0.9843390217
 Cd        -0.0732940789        9.4420366214        0.7107103610
 Cd         2.7522943980        7.0911049020        2.7343493611
 Cd        -1.7095196530        6.4611564427        2.2582850121
 Cd         4.2722078582        3.9247170492        0.5385993031
