402
 i =     5800, time =    11600.000, E =     -5882.4011861655
  O         6.4641688351        1.4442708457       10.6116437467
  O        -5.7104307335       -4.0718688973       -7.6364090952
  O         8.7420324862       -6.2678249473        6.6674934099
  O        -7.5920506260        6.8666858901        1.5287097141
  O         1.4696137176        8.1316470305       -3.9688736518
  O         7.9673591911        6.6471182494        3.1853643612
  O        -5.9843490428        7.0151387351        3.6496925412
  O         5.1773039695        5.8701903414       -5.1014721004
  O        -7.8863979747       -5.7481268179       -0.6865102688
  O         8.6670604337       -3.7678706631        5.8893686374
  O         9.3643629440       -2.6479787248       -2.5247473172
  O        -3.5309294465       -2.7440361013       -7.8893044206
  O         8.3060310156       -1.2615596905       -6.4411295945
  O        -5.0218312286       -6.6783387901        9.7109210975
  O        -7.5829261100       -1.4879985698        9.3087955377
  O        -6.4023197675        5.4899790740       -0.4730283625
  O        -0.0290951834       -7.6926588326        7.9454256234
  O        -6.5069448357        0.7495500896       -4.7150880207
  O        -1.7981597626        7.4711177266        6.3656542745
  O         8.0711071395       -5.4319096904       10.9771903210
  O        -8.4006549424       -6.8713054041        5.4149596880
  O         6.5514909543       -7.6294272359        3.9710849024
  O        -8.6745488498       -0.9439755643       -7.6511612285
  O         4.0253352512       -9.8411827007        5.4076820231
  O        -7.6598705803       -3.4695504639       -3.4639708523
  O        -8.7978421911        6.5516187017        3.7863441025
  O        -2.9325002788        6.1099739838       -7.6450536296
  O        -7.1034174321        0.7702238694       10.3474297581
  O        -5.2512111275       -8.0584447850        6.3410505008
  O        -9.1498944069       -8.4322479043        7.3262717712
  O         0.3783232367        6.4698617989       -1.9688969101
  O         3.4822965225        2.0577447253       -5.5828587409
  O        -7.3024760113       -7.8018685205        3.1120577918
  O        -3.8216393972       -7.9571081090       -7.8719749587
  O         6.7650556489       -9.2839198168       -3.1105386402
  O        -7.0148300629       -4.9273409481        9.1661353754
  O         8.6812486099        5.6061997300        8.1124511114
  O        -4.0773657449        1.5049185519       -5.8417684175
  O         4.8391259269       -5.8652845563       -3.2275616015
  O        -7.0539146495        5.6307257313       -5.0384693960
  O        -5.9083463259        3.2434177308       10.1985860390
  O        -2.0487072718        9.2618716841        8.2359392206
  O         5.6331580484        2.2717599367        6.8954309654
  O         4.2861839952        3.1717569055        8.9258733559
  O         9.3419796868        1.4374548321        9.7947569963
  O        -2.4548849437       -6.9305665891        9.2022041749
  O        -7.8090005729        6.8742208141       -7.2849807269
  O         4.6949881279       -0.2644816628       10.1453552168
  O         6.1240295733        8.3840264679        9.5373548711
  O        -0.3200359326        3.1219470061       10.6471941409
  O         5.7520836075       -7.7209522433        6.6363820576
  O         4.6160141672       -7.6908389750       -5.1454988779
  O        -3.8713335015        3.8336097299       -7.0154597729
  O         2.4778811398        7.4665877102        9.7373380715
  O         8.2608307179        2.4997920927       -7.2725161533
  O         0.4737818987        4.5061204830       -6.6562494645
  O        -8.8828072655       -2.5196804522       -5.6141356101
  O         9.4243808936        1.5313559371        4.9584212879
  O        -5.0374425787       -6.2253129434       -6.1010567226
  O         4.4224666632       -8.3514636634       -2.4629061917
  O        -8.6147345142        7.9655324380       -5.0942585932
  O        -2.0405709094        8.5352999283       10.6977907055
  O        -6.4561378627        6.9795659146        8.5919304511
  O         3.2589326291       -6.7112086040       10.4310893116
  O        -7.7204026279       -2.3452481227       -0.8992148127
  O        -6.1663309434       -5.4708375640        6.8946325152
  O         0.1553815809       -7.5429148417       -5.1126868813
  O        -7.3296335439       -4.8466911648       -5.7184968163
  O         6.4599040755        0.0857385895        8.1980494320
  O        -9.0653392127        0.1039316480       -5.2517344485
  O         4.0983053773       -4.8474593119       -7.2582830964
  O        -9.6228719459       -5.0250077626        1.2350536330
  O        -8.1517682334        4.3245785495        1.0956291994
  O         4.5480130542        4.5476916878        6.6052764851
  O        -6.7628877549      -10.5312139121       -0.9044766837
  O        -6.9971022383       -9.8909497409        8.1837998755
  O         3.8478349196        6.9563603345        5.6483668362
  O         6.5044675744       -3.1693142669       -7.0168164769
  O         3.1453267139        2.7879316364       -8.2095457311
  O        -1.1207261284        4.7837220383        8.7152958857
  O         6.5607862840       -6.4815474011        8.9427930308
  O        -5.7554482269       -0.3772192950        7.6535808070
  O         9.7198990909        3.5383970181       -4.3033243906
  O        -5.8531707415       -6.2127169412        4.5388328302
  O        -7.6008901475      -10.3875522446        3.3311468842
  O         7.2496042605        0.3600663299        5.7268771230
  O         9.4297303952       -3.5542219598        3.4321138357
  O        -0.5475740777        6.8253011483       -7.1063564115
  O         7.1030922177       -8.9773460513        8.4477405273
  O        -7.6084641479        4.0981794836       -2.4472925615
  O         8.9966705814       -4.9257205847       -1.1885021040
  O         5.6701816090        5.5772424281       -2.4040990902
  O         8.9797732421       -6.5799471296       -6.1865738087
  O         5.9400769064       -4.1228477927       10.0733252164
  O         5.6968618997      -10.8881808828        7.0018773679
  O         8.9371271684        3.1279312979        0.9574321561
  O         8.1637063129       -4.3862553468        8.4749810425
  O        -5.0087318971       -2.3511351838        9.3943280716
  O         6.1511725833        2.0211668549       -5.9856844726
  O         6.5227339673        8.5194051380        1.8153218648
  O        -6.3643554207        8.4331498876       10.7446416124
  O         1.9080200119        7.1096428050       -6.3558047136
  O        -7.5638250752       -7.5664157668        9.3430892846
  O         7.1950308050       -2.4525717395        4.0637114168
  O         3.9670960242       -7.4255217663        4.7534130995
  O        -7.3301336824        4.5675152489        7.7028424871
  O        -8.3819073118        1.4795165381        0.5562706543
  O         4.5940310362       -8.3690662561        8.8253573801
  O         9.4023290742       -7.3854358577       -0.1118731562
  O         8.7732906357       -8.3270004601        5.0270184596
  O         6.6626250772       -7.0401989265       -1.8070772769
  O         6.8610588668       -4.2400700769       -2.3262001918
  O        -0.4790937522       -9.6228506497        6.1493517433
  O         9.6218753399        5.7776535528       -5.7780372212
  O         7.1944892798       -1.1268541914       10.5463209284
  O         0.4563578922      -10.5242261180       10.5473199103
  O        -2.5516099379       -7.5432157305       -5.7630694570
  O        -2.6513476335        8.1783733971       -6.1444630058
  O        -3.7321124234        4.2477921103        9.3935766720
  O        -7.2043025938       -6.7483451079       -3.1535819799
  O         7.4931449883        4.9835658965       -4.3282152494
  O         2.6423641468       -9.3172116090       10.2735496370
  O        -0.7844795111       -9.4081499967       -6.7381241032
  O         6.5238959976        7.9663709056       -4.5936723921
  O         5.9194577413        7.8877191645        4.3408758997
  O        -0.6353368060       -8.1718590422       10.4801900553
  O        -8.6489003436        6.9697097346        7.0664490415
  O        -0.9789753081       -3.7388343364       11.1796286469
  O        -8.5795331331       -9.3179711173        0.7153822618
  O        -5.6407481758        3.3545712160       -4.6615660924
  O         8.0527483603        2.1421761371        7.6322288327
  O        -5.3526594208        5.1701615642       -2.9009905965
  O        -0.1093435969       -5.7522976935        9.6250340817
  O         8.3800049275       -9.9962979399        0.1550069311
  O         6.3123405185        7.4168196218       -0.4671635908
  O        -6.3744184855        9.0187573334       -3.5550035705
  O         8.5926080176        6.3206872735        5.6791695797
  O        -3.8091285178        6.5235745920        4.9082751469
  O        -4.2154392539        0.9550337326        5.8962940194
  O        -5.8615392104        8.1902341358       -6.0292180738
  O         8.8840328117       -9.7464882113       -4.5545093727
  O         7.2178043656        6.1094499763       10.4064962381
  O         1.9798521789       -9.4210171992       -5.6171429151
  O        -7.1811323667        6.9297451264       -2.5776472854
  O        -6.1496937747       -1.5304616304       -7.8227014053
  O         1.8877290310       -8.3137996319        6.1976704307
  O         6.4341971744       -6.7683235662       -6.9621650887
  O        -8.3647093163        1.6193600709       -3.1174960423
  O        -5.1673187369       -9.1748381353        3.8285004446
  O         8.7617812638       -6.1257589502        3.5164297770
  O         3.9919793330        8.2527574154       -5.3774984853
  O        -8.1642278357       -8.6522842102       -4.9097695563
  O         3.0434535443        0.1538574865       -7.2951119060
  O         6.3766962135        4.3619753539        8.5438028890
  O         5.5530685622       -0.7057294965       -6.7428981222
  O         2.2950435056       -6.8884507944       -6.5634565982
  O        10.1920083399        8.3750949036       -2.1131657300
  O        -8.6414621950        2.4554793074        2.9079370568
  O         4.7564130129       -8.7106292938       11.6173874467
  O        -6.4792385501        2.1444669791       -6.9123230799
  O         5.7101784622        7.5781418174       -7.2065710574
  O        -9.3271457453       -9.5664827039        9.7332754842
  O         4.0675055431       -2.4474337420       11.3301148251
  O        -8.0387846594       -5.2861609880        3.2269878552
  O        -4.0393891920        8.5812499496       -3.9835120664
  O         3.8638184604        5.3132462697       10.2432873518
  O        -6.6572817244       -2.8859477097        7.3699317417
  O        -5.3544329313        8.5533658334        5.9057665001
  O         7.5843922614        4.8839860473       -0.5821162981
  O        -6.4315808469        2.1256706619        6.9518569679
  O         0.3378093861        5.9462065319       -4.6103859847
  O         5.6825553598        3.7476231210       -8.0316554009
  O         5.1948788676        3.5177970663       -4.0368110819
  O         9.2875670668        3.1040749427       -1.6414696080
  O        -2.8670047526        5.1696954951        7.0200851105
  O        -1.5828578149       -9.4997082333       -4.3428143880
  O         1.0476743394       -3.3975047959        9.4752526650
  O         1.4590748408       -4.9007217138       11.5476316248
  O         8.0463107827        8.5321603623       11.1353978698
  O        -1.6075896592        2.4608092848       -6.6089338118
  O        -9.3083000759       -9.7620961851       -6.9942807338
  O        -3.1438938882       -9.5451856519        5.7771143742
  O        -7.9140396372       -0.9534063356       -3.1696979329
  O         9.0671106985        4.2227057908        4.0640402237
  O        -4.4628650768        8.6936916803        9.1394262528
  O        -3.5241049997        1.8481309908       -8.4962078464
  O        -1.3311794441        5.4234206556        4.7986472648
  O         1.0533193949        1.9813594037       -6.7921195948
  O         8.2439074523        8.0485960108        7.5989135625
  O        -3.2249498497       -5.3684007195       11.1616671196
  O         1.1882022985        5.2354514226        9.9950027678
  O        -7.0601645112       -6.3295359160       -7.8735119716
  O        -8.7318409780       -4.4073874049        7.2153492350
  O        -6.3032562174        6.2184319152        6.0986251836
  O        -3.6300056929       -5.7736980326        6.0066896692
  O        -4.4358076031        1.6603731556        8.5480837304
  O        -8.5089115807        3.0832611853       11.1075798710
  O         7.3088848295       -5.9575421238       -4.1465562711
  O         8.2761269494       -8.1537295828       11.1365396831
  O         8.5505351243        4.0534561721       10.1300716290
  O        -6.0437207343       -9.3908167806        1.4300490096
  O        -8.7716687817        2.5609225900        7.8306770191
  O         6.0845098708       -9.2134926618       -0.5137999154
  O         6.6107768485       -9.2174053187       -5.8774429165
  O         8.6135578306       -8.4775295378        2.3531018025
  O         2.1934787447        4.9334481376        5.2223336288
  O        -9.8805027381       -7.1772412106       -3.6263656550
  O        -6.6189473550       -7.8441255754       -0.4891794804
  O         9.9507260144        5.7982014275       -3.2350184284
  O        -9.8081960927        0.0875812391        7.2381634558
  O         2.4764680418       -7.2935611056       -3.9287889094
  O        -9.8096043624       -4.6328362499       -4.6586013851
  O         9.2985674061       -1.3243067829        5.0769850517
  O        -5.4527215950        6.0302457541       -7.6084339281
  O        -2.8064002503        6.7154375003        9.1290402499
  O        10.2580125797        6.1570030541       -0.5537596941
  O         1.1796365438      -10.1307089062        8.0639528230
  O        -8.2455831981       -8.9802548983       -2.3659804077
  O        -8.1561210028        3.3678540626        5.3954525892
  O        -1.4574863682        7.5679449651       -3.5301487959
  O        -4.8880243821       -8.8213236111       -5.4728608105
  O        -4.3247044779        5.6759714327       -5.3227163724
  O         8.0686598787        6.9749239446       -2.0765740831
  O         2.6089846448        5.7806896460        7.7642495712
 Si         2.9000047078       -8.6503048104        5.0062186619
 Si        -6.6438483026       -6.3723076020        9.8860575528
 Si        -4.1932856296        5.3800575912       -6.9072570626
 Si         6.2615958074        0.0410904624        9.8208828358
 Si        -9.4841593322       -5.8037389054       -0.1236847783
 Si        -9.7072520204       -7.4905307467        6.0904983564
 Si         9.0484252014        5.8914888231        4.1268363294
 Si        -8.2984808957        6.4385397553       -5.7819943707
 Si         3.8504356807       -8.2380000241       10.3116290772
 Si        -3.2126421624        2.3177120733       -6.9483596684
 Si        -9.0840648542       -9.9426577833       -5.3978083380
 Si         5.9928574519        4.9871039724       -3.9073071146
 Si         3.2626757196        5.4950641320        6.2633439840
 Si        -7.4046944929       -0.7833595060       10.7673586662
 Si         7.9763154065       -6.7932281981       -7.4501166519
 Si         6.0314958272       -7.8107031319        8.2377020388
 Si        -7.5158954192        8.6862609406       -2.3867022495
 Si        -5.1935338118       -6.3565337239        5.9737391920
 Si         4.3212951725        3.6959823506       10.5085627285
 Si        -5.0815093887       -2.6434540836       11.0299695660
 Si        -7.2765059717        6.2253605668        7.4509668250
 Si         2.3472697604        8.3508834044       -5.3471474392
 Si        -5.6388601326        4.9651478924       -4.5210601546
 Si         5.1851858150       -3.7303576462       -7.8720607783
 Si         6.8571098433      -10.5986884945        8.0924110556
 Si        -7.3999027141       -6.5320443174        4.1037876793
 Si         4.9654040756        2.1064440901       -4.8722654477
 Si        -1.9888490909        7.3763190792       -7.3711431500
 Si        -8.3999571948       -3.8784627138       -4.8703667805
 Si         5.2313457731        3.6601170283        7.7066724669
 Si         4.1255374011       -7.2649489772       -3.6953489227
 Si         6.7835321297        1.2398590665        7.1100489277
 Si        -8.9130448104        3.1472674604       -2.8279202786
 Si         9.0109677340       -4.7212223552        7.1108487515
 Si        -6.8088262234       -6.6687252230       -1.5290667882
 Si        -2.4646060511       -4.0308864324       -7.6168159746
 Si        -6.7375802030        5.4573002337       -2.0735439281
 Si         9.2397231306        2.7212758211       10.8166664699
 Si        -8.2963612454       -8.8415099556        8.7217261082
 Si        -2.9320687073        8.3021017849        9.1797195378
 Si         0.2986499437       -4.3962620509       10.4388622508
 Si         8.6675764232       -2.7468682497        4.6258399057
 Si        -5.1619659071        1.0848577696        7.1830021915
 Si        -7.0480684292       -9.3268362192        0.1551861573
 Si         2.7871369951       -5.7891542635       -7.6133431976
 Si        -6.0818951903        8.4465900513        9.1358006248
 Si        -8.3105838027       -2.3343349537       -2.3917529410
 Si         5.3397969059        7.3669380753       -5.6170129915
 Si        -8.4464427209       -7.9405619568       -3.5072769352
 Si        -7.5172514513        7.3485629077        3.1099610283
 Si        -5.3362516480        7.0558417877        5.1094198918
 Si         0.2307508549        7.1254386144       -3.4364385088
 Si         6.0137807872       -8.5309512954       -1.9522588137
 Si         7.7286777926        5.0555058386        9.2829248139
 Si         8.8398789275       -6.0687895354       -4.6257244285
 Si         7.1552356611       -5.1123536558        9.5951684652
 Si        -2.4187165005        8.5244936361       -4.5226377123
 Si        -4.7683741597       -9.3528802432        5.4727598212
 Si        -0.6865069885       -9.6324983906       11.0946254739
 Si        -7.0030317110        2.2997336217       -8.4049915481
 Si         1.7978577190       -7.8456513501       -5.3079018948
 Si        -6.2895169301        7.4116239236       -7.3689004470
 Si         9.1109421133        5.0244217803       -4.4134254668
 Si        -7.6476500297        3.2035750452        6.8794527114
 Si        -0.8180995780       -7.0827724456        9.2551141525
 Si         8.9258113159        0.1343858037        5.7107965312
 Si         9.2737357279       -8.7357838665        0.7448819527
 Si        -5.3212708805        9.1197662174       -4.7972766825
 Si         0.1836433166        4.0630083428        9.4106361283
 Si        -2.6512446619        5.1663955939        8.6226180816
 Si         6.6175811427        2.4029139828       -7.5044617142
 Si         5.5660434647       -8.0584393819       -6.4608372015
 Si         2.7071162106        1.7410451338       -6.9809910837
 Si        -1.1957832083       -8.3597290317       -5.4652090425
 Si        -5.7134525149        1.9472376554       -5.5106182609
 Si         6.9151737747        6.1613858719       -1.3651904254
 Si         8.1416486783       -7.6049104557        3.6738926519
 Si         6.7281532049        7.5973171901       10.8483589982
 Si        -6.2428421668       -5.3416090730       -6.8027976278
 Si        -9.4209032935       -1.1155193377       -6.2232394809
 Si         0.6515664083       -8.9635496160        7.1166841378
 Si         8.2520075956       -3.6066292540       -1.7168655348
 Si        -4.4035990251        2.7191313873        9.7749679160
 Si         4.2678882955       -0.8207236840       -7.7650096377
 Si         0.6010024200        6.0166686832       -6.1888751000
 Si        -7.1463387026       -4.4202821635        7.6216397597
 Si        -2.4553728007        6.0950547557        5.7398995388
 Si         4.8896485257        8.2128246054        5.5695142393
 Si        -4.1002564010       -7.6222652497       -6.3018749963
 Si         7.2221776882       -9.9147409055       -4.5308405845
 Si         1.7696687472        8.8736282038        9.5643511916
 Si         6.8340442102        8.8002259753        0.2437691242
 Si         6.9571312602       -1.5917442509       -7.2266370385
 Si        -0.0832573557        2.9934080169       -7.1335394540
 Si        -9.6032954208       -4.9865247271        2.8629772476
 Si        -3.5775697991       -6.7764114992       10.4023302944
 Si        -8.0253586840        0.4074166689       -3.9985466239
 Si        -7.8147434447        5.7373344789        0.3963081258
 Si        -6.5254875716       -9.2550453349        3.0028255867
 Si         6.4369826162        7.2446137050        2.9689600304
 Si        -1.9575752078        9.0937900603        6.5444495095
 Si         8.1961312526        3.3747872024       -0.4719381150
 Si         5.5034152506       -6.9742764057        5.1648412373
 Si         9.1498379019       -9.6492572938       11.0515228278
 Si        -9.9466409274        1.4928557885        8.1282465416
 Si        -9.3188541357        2.9117089049        4.3136562047
 Si        -6.2243814685       -1.7488460364        8.4346816688
 Si         9.1137312931        6.8131174242        7.1167817638
 Si         6.4276659827       -5.7395796001       -2.8193258509
 Si         9.7234352401        6.8280298559       -1.9885182861
 Si        -8.8486391740        2.8588546507        1.3124749397
 Si         2.6169398181        5.9064485264        9.4193398672
 Se        -2.3759434513       -2.0420045317        4.1123244726
 Se        -1.9344103827       -4.3865934241       -5.4299304913
 Se        -4.8524090082       -5.4328207210       -1.6389730990
 Se        -2.0411978171       -5.9166631182        2.2996385979
 Se         1.3042988537       -5.8426013925       -0.6056921879
 Se         1.6659298135       -8.6112857114        2.9770671672
 Se        -6.2633562612       -2.5591506957        2.2267561662
 Se        -4.0852868202       -1.4232775197       -4.3142646270
 Se        -4.7054944472        0.5976744578        0.1815567889
 Se        -1.5958721937       -1.1803582855        8.5777085051
 Se         3.7302250640       -1.2953014028       -0.4020982692
 Se        -2.4270775083       -2.7112753695       -0.4137195487
 Se         1.2548099449       -2.3712477827        1.6378806564
 Se         0.7705349206       -4.6737611268        5.5192267652
 Se         5.0428730827       -5.5270883628        0.8823083039
 Se         5.7146588032       -4.7747325053        5.3167562889
 Se        -2.1078122983        3.4572323236       -1.9106902792
 Se        -4.1000231457        4.0690507448        2.4930284296
 Se        -0.8979130122        1.5671999899        4.8832189545
 Se         0.1081883597       -0.2729420726       -2.9284308627
 Se        -0.6464419616        0.9192205370        1.0219522713
 Se         0.4718071826        4.2935633814        1.9955737664
 Se         1.2852566926        2.7641316459        7.8264736267
 Se         5.1097398346        0.3468600711       -3.4743344755
 Se         3.6326299954        1.4988690029        3.1893590762
 Se         1.7037391760       -0.6967755112        5.8417921486
 Se         3.6324162226       -1.6801680607        6.7582539953
 Se         7.7694104493       -2.2406887825        0.2171723959
 Se        -2.3680714440        7.4980420979        0.7951240004
 Se         2.5767640234        7.8154726516        0.8650818419
 Se         2.7804991477        3.1969600640       -1.4686507968
 Se         5.1998884913        5.4854059995        2.2553796193
 Se         6.2506365305        2.2086631852       -0.7715460331
 Cd        -6.1100992277       -3.6768504206       -0.1477961521
 Cd        -4.2752461621       -4.1653967855       -4.0508134027
 Cd        -3.0158810778       -4.4725118243        4.4530966584
 Cd        -2.6879264060       -0.7152776122        6.3185438155
 Cd         3.2511959087       -3.8865995354       -0.3311987939
 Cd        -0.4320400233       -4.5491549152        0.8534928287
 Cd        -7.2193930069       -0.3498491647        0.8066537865
 Cd         1.0008351265        1.6471285677        2.8359526503
 Cd        -3.7621654909       -1.6378764149        1.6515770570
 Cd        -0.1303628343        0.7351020909        7.7370952319
 Cd        -1.3917741046       -2.0832437863       -4.1694007346
 Cd         5.2341883471       -1.5597856340        4.6083194441
 Cd         0.1093471709       -6.5885726078        3.6395471008
 Cd         3.2888182067       -4.2103267552        5.7195803325
 Cd         3.8279146461       -0.9999542052        2.2580414092
 Cd         2.8168257207       -6.8928927776        1.2490275148
 Cd        -2.1819858369        6.0539362795       -1.2679915876
 Cd        -2.8670532871        2.7161042358        0.5100058971
 Cd        -3.2856611567        2.4845442596        4.2503025390
 Cd        -3.9747102853       -0.6963893281       -1.8642094678
 Cd         0.3720348750        2.7794514754       -0.9371356169
 Cd        -0.4599191897       -1.1559399568       -0.4312891730
 Cd         0.1632647559       -2.9448313122        7.6347080936
 Cd         2.6095189392       -0.3516082849       -2.7417251277
 Cd         6.2775058672       -0.4644647452       -0.7621832919
 Cd         0.2771540960        3.8976524264        5.4503490689
 Cd         5.7138683050       -3.3551541084        2.2990205757
 Cd         0.3823401739       -2.2546603944        4.0262461533
 Cd         2.5363618545        5.6811148599       -0.6151811439
 Cd         0.1583674831        7.8421214191        0.1581665724
 Cd         2.5830758172        5.6299246910        2.8900781744
 Cd        -1.7358776390        5.4943759731        2.5344115234
 Cd         4.0309103437        2.5356833381        0.7474221222
