402
 i =     7000, time =    14000.000, E =     -5882.3862682064
  O         6.8010588237        1.7953792073       10.6991754582
  O        -5.4754122105       -3.5105133939       -7.4445899061
  O         9.2270091616       -5.5674696310        6.5769369503
  O        -7.6487966233        7.6898090606        1.4314991938
  O         1.6118125362        8.5509809358       -4.1622465778
  O         8.0699177198        7.2649791966        3.1219265830
  O        -6.0333946032        7.5381072943        3.5267065722
  O         5.2328057162        6.3401721866       -5.4441349950
  O        -7.8229847610       -5.3065612334       -0.5334870096
  O         8.7126423579       -2.8106181563        5.9641264248
  O         9.5944787624       -2.1502501060       -2.2584972099
  O        -3.3460310571       -2.2249720602       -7.8475463234
  O         8.2304248175       -0.9116753374       -6.3861708447
  O        -4.9332415227       -5.9311597016        9.5977785763
  O        -7.3028987357       -0.7525097303        9.5369228864
  O        -6.6621016654        5.9278970451       -0.4012871061
  O        -0.0972930062       -7.0487329128        7.6023391583
  O        -6.4638929646        1.3467800076       -5.0090609658
  O        -1.8434086187        8.1819101219        6.2427253325
  O         8.2189494223       -4.8497061948       10.7526654002
  O        -8.1014691772       -6.2848234610        5.1334794758
  O         6.7492408020       -7.1883823961        3.6453583600
  O        -8.6530026291       -0.3211898463       -7.5298898809
  O         3.7671249596       -9.6704402284        5.1869065072
  O        -7.5463471968       -2.8811343382       -3.4394191303
  O        -8.7317201273        7.2371117384        3.7549466061
  O        -3.3644083431        7.5000089502       -7.5292459870
  O        -6.9199670305        1.4215998367       10.6790208462
  O        -4.9518471596       -7.3164130235        6.0978241494
  O        -8.8323006354       -7.8696701988        7.1014675634
  O         0.5300670173        7.0911572207       -2.0678745926
  O         3.4432476067        2.5931795514       -5.6466414516
  O        -7.0176662038       -7.2525624226        2.8174513128
  O        -3.8388347741       -7.3124061615       -8.0144630493
  O         7.0105944150       -8.7260407429       -3.2265195501
  O        -6.9134016498       -4.2930641181        9.2820567964
  O         8.7277429013        6.4475989217        8.0920938406
  O        -4.1766084037        2.4693907711       -6.2375786783
  O         5.0040659989       -5.2197886193       -3.5037379649
  O        -7.0634706910        6.0709543443       -5.1516862122
  O        -5.7942520416        3.6772155498       10.1105969162
  O        -2.0222709025        9.8869140531        8.0765689243
  O         5.7548469812        2.6136650500        6.7888065195
  O         4.5670065128        3.5980422530        8.9086365503
  O         9.5018130239        1.8892361172        9.7263713615
  O        -2.3492493375       -6.4832476978        9.1689352874
  O        -7.8719576655        7.3591834049       -7.2522497332
  O         4.7318170686        0.3182202215       10.0503686001
  O         6.4652471410        8.7393141448        9.0665080409
  O        -0.0342103358        3.5755984406       10.4831476598
  O         6.1086249672       -6.7531589583        6.3373249745
  O         4.5940303814       -7.0143406321       -5.5079734406
  O        -3.3924794648        4.8281651151       -7.2369729600
  O         2.7048276783        8.0468021085        9.5781561180
  O         8.3893349709        3.3364281435       -7.3785409231
  O         0.5190104294        4.9174456789       -6.6851745229
  O        -8.6370767558       -2.0829320329       -5.7071930239
  O         9.2662526934        2.2669518489        4.9939023052
  O        -4.9129166523       -5.7173090561       -6.0014879069
  O         4.6110425804       -7.7652499880       -2.8969111456
  O        -8.5743908282        8.4889453683       -5.1880678855
  O        -1.7649470487        9.2105829375       10.7492275094
  O        -6.1071596063        7.5249712663        8.5118261910
  O         3.2024618857       -6.1744335401       10.3060988848
  O        -7.3820505669       -1.5925323987       -0.9983736613
  O        -6.2551151170       -4.9566285496        6.8785337881
  O         0.2290896006       -6.9830125120       -5.1380829138
  O        -7.1835259656       -4.4344048562       -5.6246862395
  O         6.6221092098        0.5480751612        8.3382411574
  O        -9.2097396421        0.5155381769       -5.0978128833
  O         4.1669696408       -4.4591847454       -7.4478496825
  O        -9.6071432597       -4.2177328783        1.0775677882
  O        -8.4255758854        5.0385998522        1.3829007264
  O         4.5765113726        4.8509742776        6.4233664626
  O        -6.6512768273      -10.0157278850       -1.0116406939
  O        -6.8400710625       -9.2385605975        8.4454897491
  O         4.4469645862        7.3625454592        5.9531944716
  O         6.2587143580       -2.7589619079       -6.9931282696
  O         3.3151204903        3.2198639698       -8.1485781960
  O        -1.1627678996        5.2063327301        8.7636147795
  O         6.7482735266       -5.8891873543        8.8227041574
  O        -5.6311515480        0.2690752584        7.7225615094
  O         9.8343241478        3.9382790261       -4.3378385152
  O        -5.6820212470       -5.5377469678        4.4276920415
  O        -7.5339528814       -9.8348801246        3.2334915254
  O         7.3182140487        0.6382887287        5.7457245997
  O         9.7176282019       -3.0193773146        3.4912158387
  O        -0.6010041702        6.9599833830       -7.4980809925
  O         7.2036364848       -8.3093002304        8.1313715332
  O        -7.6601649403        4.5420021243       -2.4484212325
  O         9.1471139245       -4.5912674979       -1.2866046944
  O         5.8561261825        6.2364876600       -2.7052871465
  O         9.1735361405       -6.1998806163       -6.4046091205
  O         5.9088021898       -3.7005350220        9.9583882321
  O         6.1077369035       -9.9845729679        6.4514979725
  O         8.8319173027        3.7512882436        0.7954651967
  O         8.0930512952       -3.7999219529        8.2850757449
  O        -4.9075824505       -1.8628758633        9.6086888971
  O         6.1308097983        2.5668362908       -6.1664911766
  O         6.6380105967        8.9927031691        1.6203166455
  O        -6.3005585841        9.0378099723       10.8043942109
  O         1.6500882271        7.6726903506       -6.5463249706
  O        -7.5578819509       -6.7211428429        9.1269996651
  O         7.4252587687       -2.0442720175        3.7408186283
  O         4.2381438026       -7.1965797742        4.5216176863
  O        -7.1675375299        5.1351282430        7.6184306274
  O        -8.2141172164        2.5539351506        0.2535980899
  O         4.7327926804       -7.4823455875        8.6179447699
  O         9.2508935648       -6.6957239774        0.0966269191
  O         8.9379038465       -7.5889075903        4.9271172440
  O         6.7097766519       -6.3793560965       -1.9825071743
  O         7.3195527071       -3.6392072633       -2.5846205432
  O        -0.3421331923       -9.1079584704        6.1280110884
  O         9.5192887189        6.1524951319       -5.8714712331
  O         7.1528750615       -0.7853007123       10.5596774845
  O         0.7971166753       -9.9960585362       10.6495008128
  O        -2.5084657238       -6.7283339745       -5.8267660501
  O        -1.6441236249        8.6850949332       -6.0261708485
  O        -3.7813115384        4.9664170396        9.2751551696
  O        -7.1350080471       -6.1738265499       -3.0996585301
  O         7.5036647379        5.1962303686       -4.5923820804
  O         3.0338608818       -8.8943148450       10.1213536792
  O        -0.6416972161       -8.5707817525       -6.8677379154
  O         6.4578187077        8.5786555873       -4.8663989612
  O         5.8079070427        8.5392596247        3.8912539352
  O        -0.4453547612       -7.7699102310       10.0228239315
  O        -8.4274442382        7.6279314255        7.1301922385
  O        -0.8050468810       -3.2264337142       11.0663867529
  O        -8.4360566882       -8.7017780318        0.4472549181
  O        -5.6161360800        3.8953955237       -4.5722072002
  O         8.1168186338        2.5835719944        7.6321974095
  O        -5.4536332349        5.8097152690       -2.9558178540
  O        -0.1668005415       -5.0404039797        9.2534684440
  O         8.4050619541       -9.3488933329        0.1265884407
  O         6.2901566440        8.1108070453       -0.8098529695
  O        -6.2932204088        9.4022707951       -3.6741648942
  O         8.8155459178        6.9900550103        5.6162771538
  O        -3.7118568657        7.1201383476        4.7744752479
  O        -4.3250199464        1.4452066562        5.6867227117
  O        -5.8519099003        8.7102482973       -6.1481683011
  O         8.8842802070       -9.3758263933       -4.9503584013
  O         7.2576385788        6.5840945805       10.3021980132
  O         2.0856501421       -8.9242690179       -5.7994435596
  O        -7.6054238634        7.3763110310       -2.3759132846
  O        -5.9487793071       -0.8904688808       -7.6863270079
  O         2.0915722649       -7.8631721811        6.1109904242
  O         6.5494180113       -6.1042969755       -7.1784201324
  O        -8.2373286927        2.1433853289       -3.0120608097
  O        -5.0999035375       -8.6767438155        3.7806242116
  O         8.8768260565       -5.5445533092        3.1799085904
  O         3.9728328218        8.6555647764       -5.6284858794
  O        -8.1330637870       -8.2460257868       -5.0897758953
  O         2.9418480453        0.5550583872       -7.3764035882
  O         6.5827639810        5.0080222521        8.1775710072
  O         5.5722887461       -0.2533659926       -6.9023514862
  O         2.2575569754       -6.2950443072       -6.5948170452
  O        10.3324843431        8.9316082994       -2.6184653644
  O        -8.7611127910        2.9549019252        2.9152939068
  O         4.9746712790       -7.9341158532       11.3790532962
  O        -6.7718794483        3.2414265929       -6.7181090639
  O         5.7769785364        8.0613024773       -7.5398546591
  O        -9.3024996994       -8.8927498002        9.4799402531
  O         3.9320169696       -1.9753792537       11.4120844723
  O        -7.8689252795       -4.8686067425        2.9862414734
  O        -3.7727333862        9.0557472565       -4.2670215408
  O         3.7052750094        5.6533268207       10.1918024735
  O        -6.4407208705       -2.3113088845        7.4465093599
  O        -5.2280108004        9.1666569454        5.7253966333
  O         7.5214733517        5.5843058453       -0.6754174940
  O        -6.3937702034        2.6969722538        6.6502565554
  O         0.0974266927        6.5499306272       -4.7234101267
  O         5.7763062212        4.2249047752       -8.1359275633
  O         5.1588140286        4.0344394008       -4.1418422136
  O         9.2401831981        3.7469045562       -1.7220330831
  O        -2.9904312487        5.8750078955        6.8802846103
  O        -1.6972998611       -8.7222639572       -4.4100199714
  O         1.1606333417       -2.7588954977        9.1972304518
  O         1.5214914542       -4.3459358374       11.3405105624
  O         8.1305465848        9.1453567001       10.8896320266
  O        -1.4648110119        3.1161886486       -6.7874536924
  O        -9.3066430413       -9.1830296144       -7.2560402701
  O        -2.9784906689       -8.8598949942        5.5926595693
  O        -7.6346402584       -0.3022246350       -3.1735555891
  O         9.2187217444        4.9649131383        3.9489222857
  O        -4.3209005065        9.2743877874        9.1717615344
  O        -3.2598457151        2.7585743782       -8.7208127028
  O        -1.3441834384        5.9610005665        4.6753717179
  O         1.1999209778        2.4563533739       -6.8026255991
  O         8.6025568211        9.0556581496        7.2957598280
  O        -2.9933656363       -4.8293798406       11.1433455571
  O         1.1174663100        5.9803213590        9.7159140279
  O        -6.6938224377       -5.8103030189       -7.8853500678
  O        -8.6238934604       -3.6532239278        7.4544296303
  O        -6.1357457900        6.7319018171        5.9751052252
  O        -3.8285654303       -4.8471502733        6.2169289262
  O        -4.1872254574        2.4770711067        8.2041875367
  O        -8.4432749136        3.7194627830       10.9876953005
  O         7.4423669047       -5.5817140360       -4.4169243569
  O         8.4640274834       -7.5192252533       10.8754792392
  O         8.7483158150        4.3626219110        9.6854087285
  O        -5.8804276326       -9.0458952286        1.3056117928
  O        -8.6882722726        3.0808227079        7.8018174838
  O         6.0394409331       -8.7219671773       -0.7487322828
  O         6.8394463333       -8.3934196513       -6.0227824164
  O         9.0341607990       -8.0077870440        2.3803077517
  O         2.4166603408        5.9096415126        5.0806249981
  O        -9.6489403272       -6.7353196364       -3.8156817469
  O        -6.2400563812       -7.3390977634       -0.6326436383
  O         9.8273965501        6.2153942612       -3.4048603874
  O        -9.6096335570        0.6557797584        7.1068365502
  O         2.5626950936       -6.6791914711       -4.0347763569
  O        -9.5800463009       -4.2279371820       -4.7394456590
  O         9.4635013252       -0.5558902338        4.8167793576
  O        -5.5287855944        6.4892959294       -7.8579677917
  O        -2.5475012162        7.3539464045        9.0375462285
  O        10.2077573584        6.7338548328       -0.6264228479
  O         1.3884928834       -9.4369025840        8.0429295466
  O        -7.8914931122       -8.4154026794       -2.4285890603
  O        -8.3388550033        4.0788898198        5.4715535400
  O        -1.2300058290        8.2937400893       -3.4441866398
  O        -4.7627373831       -8.2976055972       -5.5491878755
  O        -4.3941708589        6.2550663632       -5.3425966168
  O         8.1962016474        7.6517410755       -2.2499934592
  O         2.8612527254        6.1168394355        7.7643492413
 Si         3.0965429385       -8.2365521369        4.8501281228
 Si        -6.5261373724       -5.7213016353        9.8695460702
 Si        -4.2102313151        6.1845800632       -6.9475673139
 Si         6.3350331427        0.4688003550        9.9726010999
 Si        -9.3957101506       -5.2229183928       -0.0979443473
 Si        -9.3607802932       -6.8682697112        5.9620147524
 Si         9.1654570045        6.5983499311        4.1018518655
 Si        -8.4095803411        6.9604900528       -5.7547498350
 Si         4.0452366272       -7.5808533668       10.1062996543
 Si        -3.0531865365        3.2420658840       -7.1770558157
 Si        -9.0737619773       -9.4223881011       -5.6740131567
 Si         5.9306466015        5.4453231496       -4.1734789144
 Si         3.5229719263        6.1472644814        6.2476602792
 Si        -7.2329225131       -0.1174984088       11.0077984104
 Si         8.1544313311       -6.1538378835       -7.6448081555
 Si         6.1706282786       -7.0595144577        7.9230096142
 Si        -7.4383299406        9.2772684860       -2.4836898505
 Si        -5.1190051498       -5.6707755433        5.9477530972
 Si         4.2929990012        4.1897144262       10.4232430459
 Si        -4.9388633553       -2.1425571902       11.1970304019
 Si        -7.0079419605        6.7752088877        7.3132188239
 Si         2.3926781998        8.8514520730       -5.5393156480
 Si        -5.6327461612        5.5072007985       -4.5531231188
 Si         5.0536514046       -3.2375747239       -8.0113708080
 Si         7.1134319425       -9.9075965155        7.7564001078
 Si        -7.1350932751       -6.0125445251        3.8196442744
 Si         5.0258027588        2.6447158776       -4.9665558721
 Si        -1.8383916249        7.9586507133       -7.4251562385
 Si        -8.1936063769       -3.4180384776       -4.8874775719
 Si         5.3795300685        4.0412345793        7.5657668122
 Si         4.1951372460       -6.5835030820       -4.0218854504
 Si         6.9405051926        1.5368099562        7.1298422442
 Si        -8.9331099099        3.6483094387       -2.8210105869
 Si         9.1925794308       -3.9734171598        7.0439516606
 Si        -6.6260834174       -5.9954933242       -1.4735305746
 Si        -2.2774089194       -3.4789198360       -7.5950327782
 Si        -6.8168615977        5.9168703813       -2.0581869739
 Si         9.3781505848        3.2957445016       10.6748134715
 Si        -8.0677550631       -8.1888538644        8.5448852254
 Si        -2.7855193639        8.9537850112        9.1628514884
 Si         0.4791734014       -3.8237287822       10.1704996272
 Si         8.8376032007       -2.0512600142        4.4875130147
 Si        -5.1506940437        1.6812388250        7.0364161841
 Si        -6.7965948186       -8.7682028761        0.0153376084
 Si         2.7446569514       -5.3057305878       -7.7574927800
 Si        -5.9206984626        9.0311884820        9.2294740992
 Si        -8.1497955686       -1.7013028131       -2.4059394498
 Si         5.4141274176        7.8807884631       -5.9506355032
 Si        -8.1453646238       -7.4337124757       -3.6481794776
 Si        -7.5285215294        7.9678619024        3.0167878385
 Si        -5.2832272878        7.6593451156        5.0472047104
 Si         0.3516809822        7.6489823439       -3.5541276563
 Si         6.0748981032       -7.9253487648       -2.1252798148
 Si         7.7688340873        5.5774051498        9.1408493973
 Si         9.0266822266       -5.6428790648       -4.8784241458
 Si         7.2378448388       -4.4922173676        9.4796902594
 Si        -2.1542652842        9.0744854302       -4.4932629940
 Si        -4.5878124232       -8.6975898768        5.3852332895
 Si        -0.4388935604       -9.0015162503       10.9847171465
 Si        -7.0032116863        2.9975397513       -8.3259585962
 Si         1.8203153477       -7.3105930953       -5.3759893185
 Si        -6.3267253258        7.8749952501       -7.4479758380
 Si         9.1117438983        5.3245610664       -4.5263581113
 Si        -7.5550176305        3.7537360034        6.8974821692
 Si        -0.7570554894       -6.5378104337        9.0325714070
 Si         9.0061337027        0.7789990920        5.5829564540
 Si         9.4347724063       -8.2087427124        0.7638961176
 Si        -5.2128571603        9.5487381820       -4.8356597868
 Si         0.2621152815        4.6120279214        9.2542531613
 Si        -2.6539670186        5.8204592057        8.4923658369
 Si         6.7644440262        3.0308296078       -7.5738683708
 Si         5.7566617745       -7.4292891321       -6.6551846967
 Si         2.8087031120        2.1647926682       -7.0202639316
 Si        -1.2236843384       -7.7110240405       -5.5311986359
 Si        -5.7332912795        2.7140936724       -5.6123503847
 Si         6.9675295331        6.8521371544       -1.5690672288
 Si         8.3808785957       -7.0432993977        3.5075050655
 Si         6.8608768656        8.1713618158       10.5859497765
 Si        -6.0886878689       -4.8315232387       -6.7171870788
 Si        -9.4077830291       -0.7449489660       -6.1872238357
 Si         0.8106694362       -8.3112818978        7.0009306724
 Si         8.4902888343       -3.1392440901       -1.5542547761
 Si        -4.3294895437        3.4585698114        9.5213622013
 Si         4.2885751122       -0.3737507146       -7.9020641065
 Si         0.4652025509        6.5162942880       -6.3179641922
 Si        -7.0025601813       -3.7995548138        7.6871027737
 Si        -2.4107245939        6.7526853851        5.6348457433
 Si         5.0793917248        8.7316067242        5.3864412626
 Si        -4.0394431044       -7.0799387641       -6.3598897527
 Si         7.3042312002       -9.2830237554       -4.7336943282
 Si         1.9469585154        9.4494442396        9.5224798761
 Si         6.8845507395        9.4516650881        0.0729365981
 Si         6.9043283036       -1.2791568506       -7.2222738407
 Si         0.0466461221        3.4841716411       -7.2677968669
 Si        -9.4445753678       -4.4323288070        2.7016797926
 Si        -3.4946685856       -6.1014954787       10.2739932266
 Si        -7.8976329492        0.9658836010       -4.1335307787
 Si        -8.0055078852        6.3240893776        0.4391558268
 Si        -6.3468641531       -8.7486955846        2.8483652286
 Si         6.6172221592        7.7941024035        2.6631192362
 Si        -1.8427656045        9.6816980836        6.4571364598
 Si         8.1641721277        4.0776565063       -0.5629425217
 Si         5.7069600468       -6.5173238422        4.7217407889
 Si         9.1287585978       -8.9794230504       10.8451267034
 Si        -9.7743846842        1.9986821017        8.0978334278
 Si        -9.3849192353        3.6363577049        4.3285770417
 Si        -6.0625221259       -1.1922140021        8.5660805035
 Si         9.2934236038        7.5695999309        7.0678219062
 Si         6.6281382252       -5.0894808680       -3.0822685876
 Si         9.8820196665        7.4106172482       -2.1922770394
 Si        -8.8972706835        3.4864390666        1.3375648069
 Si         2.6071122651        6.4504679312        9.2699609759
 Se        -2.3473788163       -1.4843849943        3.9466346807
 Se        -1.8899302283       -3.6760384955       -5.3720405177
 Se        -4.8344365580       -4.6837274116       -1.4262915438
 Se        -2.1586773786       -5.5684101573        2.5895739096
 Se         1.1568829387       -5.3947871004       -0.3844074848
 Se         1.7241810582       -8.0621031092        2.8976057333
 Se        -6.2270327163       -1.5446864758        2.2444945476
 Se        -3.9400581706       -0.7585853903       -4.5027121116
 Se        -4.8038738931        1.2428435816       -0.0675383436
 Se        -1.9619963319       -0.1835105924        8.4977820434
 Se         3.9640293903       -0.9364644575       -0.8605224600
 Se        -2.3289620103       -2.3307177746       -0.6914650106
 Se         1.3724722606       -1.8622029794        1.6087914779
 Se         0.8179838997       -4.2338284280        5.4894408487
 Se         4.9796394337       -5.1338518310        0.5771007343
 Se         5.7971015096       -4.2686003511        4.6457449926
 Se        -2.1087183092        4.4024541841       -1.8780450556
 Se        -3.8815956283        4.6322702402        2.4961119098
 Se        -0.7850533102        2.2785767223        4.5512709643
 Se         0.1725414336        0.4540156713       -2.6628348486
 Se        -1.0752604951        1.6454107444        0.8583245947
 Se         0.6924397139        5.1722296464        1.9153095785
 Se         1.2157043353        3.3648387268        7.5691843123
 Se         5.2413524798        0.7891001627       -3.7403878754
 Se         3.6437619535        2.1292878890        2.6927657935
 Se         1.7453815811       -0.2399725035        5.9389671689
 Se         3.9368410322       -1.1827633103        6.5079628773
 Se         7.8918116395       -1.7508162968        0.3317286399
 Se        -1.8149043020        8.5472354343        1.0463526993
 Se         2.9683127400        8.2769020392        0.7366292377
 Se         2.6230373517        3.6729165267       -1.7173313985
 Se         5.5548660834        5.7580613658        2.3561771412
 Se         6.2953418900        2.8399433662       -1.0583115109
 Cd        -6.1453767534       -2.9216156029        0.0711540312
 Cd        -4.2739335072       -3.2785433143       -3.7403109559
 Cd        -2.8807053952       -3.9439385618        4.3459376648
 Cd        -3.0547120996       -0.4711383582        6.2490221421
 Cd         2.8937068234       -3.4534827162       -0.2659119355
 Cd        -0.7129712654       -4.1083777750        0.8119274678
 Cd        -7.3843757373        0.6169235428        0.6330809484
 Cd         1.1161602753        2.4884436643        2.1186764125
 Cd        -3.6786446244       -0.9543798947        1.4230724918
 Cd        -0.6662518640        1.6594960729        7.1192830044
 Cd        -1.1454065517       -1.2067571710       -4.1803588003
 Cd         5.3886257709       -0.9044710230        4.1633628450
 Cd         0.1742233396       -5.8552064652        3.6391215303
 Cd         3.3257334395       -3.5563518854        5.4007004069
 Cd         3.7962195171       -0.4922786167        1.8842376975
 Cd         3.0136381469       -6.3399759336        1.3882876381
 Cd        -1.4803922875        6.5703934827       -0.7811265847
 Cd        -3.1799534341        3.3643680923        0.2144310401
 Cd        -3.3410394468        2.9297969819        4.3242379243
 Cd        -4.4132991647        0.2772285754       -2.3190179549
 Cd         0.0883254981        3.1184744513       -1.1495831370
 Cd        -0.2156324596       -0.6980666039       -0.2182866419
 Cd         0.3424386491       -1.4675575384        7.8419737507
 Cd         2.8006326115        0.6006315347       -2.5024207880
 Cd         6.4200111366        0.1009180425       -1.1257075887
 Cd         0.5635825793        4.8025523762        4.9911918562
 Cd         5.8189448916       -2.9283020449        2.0149348364
 Cd         0.3220225632       -2.0401202343        4.0039930256
 Cd         2.3231538561        6.2761176665       -1.0125564570
 Cd         0.6267680878        8.6219137687        1.1132048782
 Cd         2.9367953911        6.4182211101        2.8497992142
 Cd        -1.7202100807        6.1393731479        2.5348258556
 Cd         4.4111113813        3.5782212630        0.6468412235
