402
 i =     5500, time =    11000.000, E =     -5882.4199278391
  O         6.6796001692        1.3172067896       10.6149845947
  O        -5.4399906741       -3.8243285578       -7.3460121503
  O         8.9544858432       -6.1788690053        6.8518183555
  O        -7.5602611158        7.0293512792        1.4992891305
  O         1.5400333824        8.1455981347       -3.9051889289
  O         8.0149550036        6.4656332020        3.1329852724
  O        -6.1905413647        6.8153573977        3.8508131399
  O         5.2638422876        5.7605961813       -5.2867829679
  O        -8.2085035155       -5.8756021814       -0.5764271368
  O         8.6373789245       -3.4875469251        6.0582465414
  O         9.2190932347       -2.5624861400       -2.2564365420
  O        -3.1215366526       -2.6071639593       -7.9205494152
  O         8.5289222416       -1.3888503401       -6.4453993804
  O        -5.0379764080       -6.4185201702        9.7203871652
  O        -7.3422033430       -1.6398816733        9.5640958815
  O        -6.4799785577        5.5528351314       -0.4029185548
  O         0.0475316523       -7.5265163665        7.7615351734
  O        -6.2179458577        0.6409245120       -4.5140535824
  O        -1.5745980700        7.4628309302        6.0581266888
  O         8.3791184127       -5.6145106068       10.8156493650
  O        -8.2601288787       -6.7290374530        5.3507894977
  O         6.7705672798       -7.5495349697        4.1861059702
  O        -8.4326895406       -0.8870238716       -7.5076636778
  O         4.0796209584       -9.9697380330        5.4080434291
  O        -7.7334626093       -3.4584946683       -3.1480916465
  O        -8.7700199211        6.2959615600        3.6842759236
  O        -2.5864764557        6.0136539744       -7.4065018449
  O        -7.1968049394        0.7255832019       10.3951297288
  O        -5.0391281037       -8.1240930213        6.3612558422
  O        -8.8497535084       -8.3059739496        7.4670040828
  O         0.5997760687        6.7096943495       -1.8150117167
  O         3.4922007631        2.3447774080       -5.6281401231
  O        -7.2797667331       -7.9615760338        3.3098609167
  O        -3.6131615074       -7.6775212593       -7.8223298750
  O         6.9410245930       -9.7251192070       -3.0042472329
  O        -7.1633278726       -4.9392733873        9.4336390881
  O         8.7953426751        5.4649868953        7.9687653419
  O        -3.9664600394        1.5362542818       -5.9598277122
  O         5.0080042466       -5.9067737938       -3.2350654063
  O        -6.9974630725        5.4283357405       -4.9499954753
  O        -5.8384302444        2.9082268920       10.1809214609
  O        -2.1107228119        9.1608854505        8.0590178757
  O         5.8515908694        2.2611887884        6.9280514231
  O         4.4574600604        2.9640917817        8.9461752776
  O         9.3211084996        1.2549429353        9.8906149519
  O        -2.4744147813       -6.8819028970        9.1929294954
  O        -7.5093574516        6.5916698128       -7.3008007653
  O         4.7986473200       -0.3409371243       10.1819626169
  O         6.3943559012        8.2852994805        9.5365779256
  O        -0.1872884191        3.0520990424       10.7195501193
  O         5.6531622110       -7.5622314313        6.7100795148
  O         4.7586698814       -7.5059556134       -5.2874800459
  O        -4.0391021195        3.8909879514       -7.1731563684
  O         2.5587755003        7.5083739674        9.6942488064
  O         8.2759057664        2.6383675887       -7.3030675314
  O         0.7072837210        4.4813527101       -6.4894789659
  O        -8.6221721261       -2.6311152377       -5.6031896379
  O         9.2498228271        1.6959415841        5.2724930066
  O        -4.8325903945       -6.0870037933       -5.8972806507
  O         4.6474818235       -8.4520122644       -2.6897118477
  O        -8.3182737718        7.9469367015       -5.1404810216
  O        -2.0424112003        8.5349377462       10.7918475896
  O        -6.2499274930        6.9247208474        8.7968529210
  O         3.1930542779       -6.8032609451       10.4246799747
  O        -7.8675803964       -2.1623772160       -0.7676696026
  O        -6.1238052251       -5.6801614693        7.1276563296
  O         0.2945688109       -7.4971028729       -4.9248032406
  O        -7.0337908980       -4.7167986185       -5.4485927102
  O         6.5902407254       -0.0690184925        8.4138256435
  O        -8.8834789338        0.0304711427       -5.1908342413
  O         4.2592607703       -5.0771098858       -7.2241775022
  O        -9.6526434433       -5.0770202858        1.3655361306
  O        -8.2005043641        4.4458647757        1.2382009460
  O         4.7274123773        4.5771539736        6.6974964093
  O        -6.7484796565      -10.5330069438       -0.8108763588
  O        -6.7769596319       -9.8161232519        8.5521137749
  O         3.9936865972        6.9718927795        6.1282309985
  O         6.4862231115       -3.2546817573       -6.9854355423
  O         3.0099994981        2.5877557638       -8.2990745803
  O        -1.1969409381        4.3945038460        8.7383842132
  O         6.9792371322       -6.4729754901        8.8516544482
  O        -5.6347473090       -0.5028227677        7.8501438653
  O         9.9979532683        3.5226564256       -4.2482484911
  O        -5.7189443793       -6.1965111219        4.5331139168
  O        -7.6077576712      -10.5223161528        3.4424172588
  O         7.3212884064        0.2387945577        5.9966563243
  O         9.2916819883       -3.5429095366        3.5270611001
  O        -0.3214946112        6.9105878586       -7.1988714102
  O         7.3298771993       -9.0399083979        8.1001351179
  O        -7.5506179439        4.1515793502       -2.4642180144
  O         8.9643616474       -5.0652408466       -1.1845428568
  O         6.0095686672        5.7192748647       -2.7116965987
  O         9.1140633172       -6.7301648173       -6.1931001309
  O         5.9560971809       -4.4065018446       10.1473692989
  O         6.0296331302      -11.0319843553        6.8991305922
  O         8.9108056682        3.1144618212        0.8684459807
  O         8.3276315654       -4.2689969557        8.6382275730
  O        -4.8706305734       -2.5801484825        9.5139252749
  O         6.0607997209        1.9149291308       -6.1288381251
  O         6.4986727620        8.4335509468        1.8365927873
  O        -6.4894424395        8.5339599221       10.8354232775
  O         2.0242897112        7.1203837452       -6.1204842445
  O        -7.5760300355       -7.5609248116        9.6515296320
  O         6.9672545721       -2.4170617350        4.2444321009
  O         4.0916380778       -7.4166746313        4.7579961379
  O        -7.2161148009        4.4580995676        7.8827722005
  O        -8.1765824881        1.7645191011        0.6495517208
  O         5.0682913920       -8.2494317221        9.1308403569
  O         9.0171053768       -7.4187632614        0.1765974963
  O         9.0225547177       -8.3581626513        5.2821823960
  O         6.8836791182       -7.1402970127       -1.8954331398
  O         6.8858914062       -4.1864789817       -2.3558796272
  O        -0.3689389100       -9.5573067259        6.1773337432
  O         9.9219527793        5.6707764922       -5.8805480026
  O         7.3177152940       -1.2801146469       10.6038165140
  O         0.6056720799      -10.3785816194       10.8548340066
  O        -2.4030726125       -7.1981704045       -5.7059726027
  O        -2.2977216296        8.1645132743       -5.9618161883
  O        -3.7287427388        4.1215437999        9.1796488257
  O        -7.0131744284       -6.7764491354       -2.9329141552
  O         7.6725012810        4.7854583597       -4.6807337709
  O         2.9306231272       -9.3634458468       10.2086117147
  O        -0.8952156467       -8.9894650299       -6.8394689454
  O         6.8509697403        7.8214794744       -4.9687772786
  O         5.8156556070        7.7932101760        4.3013076535
  O        -0.9235289258       -8.5614639096        9.8479295615
  O        -8.4194034595        6.7748136498        7.2606159904
  O        -0.7092596150       -3.8137308325       10.6771158410
  O        -8.6060988648       -9.2711474237        0.7042272070
  O        -5.5084774747        3.2114149229       -4.8175039370
  O         8.1626756907        2.0378532359        7.8188726183
  O        -5.3223180561        5.1189747416       -2.9765956147
  O        -0.0430235072       -6.1518282370        9.9925251246
  O         8.2980405169      -10.0337695024        0.2319729248
  O         6.3031737704        7.2657525424       -0.3943666469
  O        -6.2235153514        9.1733032610       -3.6481691897
  O         8.8577792374        6.6879449332        5.6125903870
  O        -3.7926671965        6.6856573085        4.8410903030
  O        -4.2135286422        0.6958108676        5.9390237862
  O        -5.5173975899        8.0893446296       -6.0230768573
  O         9.0197156637       -9.8592200291       -4.8275300884
  O         7.5951288538        6.0722370674       10.3719945178
  O         2.2243139814       -9.3175034083       -5.4859099081
  O        -7.0397926472        6.9159328348       -2.5742687115
  O        -5.6728018836       -1.1344490207       -7.8045647389
  O         2.0795857862       -8.3487892027        6.2845909836
  O         6.6254310170       -6.9105278323       -7.1379577120
  O        -8.1660158830        1.6282292167       -3.0336205704
  O        -5.0934243798       -9.3147803557        3.8725755712
  O         8.9533009691       -6.2750092111        3.5778563716
  O         4.1590619437        8.2284314865       -5.4825928528
  O        -7.9599873303       -8.6677523936       -4.9735985635
  O         3.2274609209        0.1262612394       -7.1615273975
  O         6.5644266962        4.3940370533        8.5070697045
  O         5.7271396179       -0.8694801727       -6.7409129402
  O         2.1850271066       -6.6499252994       -6.3983282559
  O        10.4499501754        8.2250029840       -2.4536755297
  O        -8.9771901919        2.7229691502        3.0455215546
  O         4.7677720757       -8.5892725856       11.7678003560
  O        -6.5981620195        1.9439381376       -6.8329458304
  O         5.9893164794        7.3691172107       -7.3097830610
  O        -9.2501443560       -9.6839332686        9.6927606169
  O         4.1353365442       -2.5781377778       11.3557911033
  O        -7.9205977211       -5.2570172892        3.3885225502
  O        -3.7823771764        8.7427565602       -3.9784367615
  O         3.5934195127        5.1028824674       10.3603397800
  O        -6.5358722126       -3.0672477923        7.5426910703
  O        -5.3932029491        8.5845123203        5.9232079709
  O         7.4894683310        4.7713019116       -0.7612735053
  O        -6.3170476421        2.0787414528        6.8035488359
  O         0.3033227467        6.0458086135       -4.5575576608
  O         5.6129805166        3.5978640082       -8.1309545588
  O         5.4297120348        3.4387663590       -4.0467807595
  O         9.3628479102        3.0675211582       -1.7241002291
  O        -2.9722899662        5.4307909893        6.9525340131
  O        -1.6341155888       -9.2457632171       -4.3032836447
  O         1.0670399498       -4.0657653379        8.7108422494
  O         1.7798376768       -4.6694654072       11.1976506152
  O         8.4015604198        8.4105436992       11.3195851437
  O        -1.5871943098        2.8713712309       -6.4539637260
  O        -8.9462974190       -9.7154326695       -7.1820612611
  O        -2.9565491508       -9.6868007330        5.4208684045
  O        -7.8899899541       -0.9360760753       -3.0184105170
  O         8.9582106007        4.2770344532        4.4688543729
  O        -4.3520476181        8.7675675837        9.2674846757
  O        -3.3508262384        2.0093480134       -8.5404877425
  O        -1.4664685689        5.2664226563        4.7308078245
  O         1.0393274548        1.8938939788       -6.5355345728
  O         8.5740996481        8.0745413777        7.8102003747
  O        -3.0275565105       -5.1972500179       11.1824706599
  O         1.0476057807        5.2481337044        9.8230511640
  O        -6.7116508106       -6.1323593420       -7.6382991136
  O        -8.6416011080       -4.2942255189        7.3776534190
  O        -5.9305684313        6.0566286155        6.3037434468
  O        -3.5450930146       -5.9910873570        5.9428457726
  O        -4.2540395662        1.6454652361        8.3767841303
  O        -8.3867641681        2.9462964583       11.1806958052
  O         7.4698568376       -5.9839418828       -4.3124711084
  O         8.4406492831       -8.3534223250       11.0836706062
  O         8.8208032910        3.8643782384        9.8875394092
  O        -5.9890442761       -9.4663993464        1.4874920821
  O        -8.5307125194        2.3895449934        8.1679095402
  O         5.9348722112       -9.4536076204       -0.5290875403
  O         6.6602797416       -9.0613460105       -5.6419957105
  O         8.8809407715       -8.6673120992        2.5364320062
  O         2.3980922103        4.9582454379        5.3954034964
  O        -9.5829100917       -7.1752675612       -3.5305493174
  O        -6.4958523249       -7.9448163615       -0.4816999566
  O         9.7841703647        5.7314949193       -3.2348192218
  O        -9.6578501171        0.1262621364        7.2719161897
  O         2.6660068015       -7.2369726848       -3.8221568584
  O        -9.5228810194       -4.8212462881       -4.3627449225
  O         9.2963882079       -1.2129973561        4.9799019011
  O        -5.0517236791        6.3254220551       -7.8816143182
  O        -2.5912239259        6.6272334776        9.1916195521
  O        10.3725139787        6.1649180784       -0.6074146925
  O         1.2033692560       -9.9986549871        8.2551062548
  O        -8.0262203419       -9.0222465842       -2.3547047759
  O        -8.1845492304        3.4638159696        5.5849535349
  O        -1.2330333151        7.7701566005       -3.4029964231
  O        -4.7939670233       -8.7201345435       -5.6116869945
  O        -4.3380998521        5.7275559097       -5.3085612561
  O         8.2076036767        7.1267895640       -1.9344940226
  O         2.6497198509        5.6752928779        7.8584161823
 Si         3.1080964994       -8.7064907154        5.0712625396
 Si        -6.6119567256       -6.3184813238       10.1457619581
 Si        -4.0818439016        5.4459427257       -6.8742052203
 Si         6.3786996933       -0.1445756709        9.9465024747
 Si        -9.6911961927       -5.9334751442       -0.0037979463
 Si        -9.4198989831       -7.3742714019        6.2795966710
 Si         9.0736536818        5.8945205997        4.1845545428
 Si        -8.0293627295        6.4142103663       -5.7513906472
 Si         3.9830637695       -8.1773695799       10.3819003568
 Si        -3.2024278590        2.5258077906       -7.0434766799
 Si        -8.8474255071       -9.9261669878       -5.5860722742
 Si         6.0785289774        4.9331836511       -4.1187426938
 Si         3.4064098993        5.5328559098        6.4443386806
 Si        -7.1764047675       -0.7214430705       10.9267728741
 Si         8.2029613544       -6.8451609646       -7.5416894216
 Si         6.2770933784       -7.7601005567        8.2276840522
 Si        -7.3031963311        8.6503261316       -2.4007232658
 Si        -5.0763044341       -6.4638825895        6.0730835911
 Si         4.1302143827        3.6045860981       10.4431064598
 Si        -4.8289206933       -2.5099315261       11.1824185113
 Si        -6.9789666830        6.0855024350        7.5887922005
 Si         2.5604099738        8.4014762960       -5.2348837311
 Si        -5.5319452275        4.8099953791       -4.4858063685
 Si         5.1691968134       -3.8512933308       -7.8140539707
 Si         7.1222630376      -10.6199826526        8.1191185692
 Si        -7.2729190655       -6.5407783062        4.1193050390
 Si         4.9713136194        2.1290437018       -4.9288857485
 Si        -1.8438929930        7.4399363549       -7.2198233787
 Si        -8.1763534645       -3.8919526325       -4.6819402177
 Si         5.3647828003        3.5873101384        7.7544376602
 Si         4.2917457440       -7.2667408592       -3.7638125035
 Si         6.9295350655        1.1891897744        7.3030085338
 Si        -8.7886414296        3.1192392814       -2.7956017035
 Si         9.1711831622       -4.5226280850        7.2276984359
 Si        -6.9209043946       -6.6183157932       -1.3061453921
 Si        -2.0688391540       -3.9195672596       -7.7425066135
 Si        -6.6255567645        5.4791893595       -2.0199507030
 Si         9.3563533576        2.6457848822       10.8632460375
 Si        -8.1829819056       -8.9008368278        8.8129923629
 Si        -2.8638528098        8.2336996160        9.1145644292
 Si         0.5352320448       -4.6225116792       10.1007537510
 Si         8.4812534508       -2.6680828249        4.6587696889
 Si        -5.1753213391        0.9589035291        7.2107744767
 Si        -7.0592184256       -9.3276962245        0.1801000690
 Si         2.7959277296       -5.7887649973       -7.6361987227
 Si        -5.9685938959        8.4532063866        9.2965204988
 Si        -8.4623532291       -2.2775207456       -2.2648919197
 Si         5.5235332170        7.3019168653       -5.7996242874
 Si        -8.1540067704       -7.9719954562       -3.4951830958
 Si        -7.5800140945        7.2087618164        3.0834609111
 Si        -5.3218676282        7.0817745463        5.1912792383
 Si         0.3435056177        7.1651438221       -3.3476931561
 Si         6.1816646285       -8.7026472702       -1.9684802430
 Si         7.8947305948        4.9410091563        9.2259455037
 Si         9.0647763305       -6.2203637935       -4.6268929920
 Si         7.3436138650       -5.1439651246        9.6132359248
 Si        -2.2217282234        8.6102780345       -4.3534412922
 Si        -4.5827372517       -9.4238060587        5.3876273208
 Si        -0.7452224937       -9.5843315622       11.0400606255
 Si        -6.9873023845        2.1913862168       -8.3743220957
 Si         1.8803328396       -7.7236944482       -5.2037983568
 Si        -6.1202005290        7.4483998354       -7.3737574925
 Si         9.2738003914        4.9451512454       -4.5105673832
 Si        -7.5678171333        3.1213489043        7.0578239598
 Si        -0.8091557919       -7.1472231740        9.0808167598
 Si         8.9710514345        0.1664926214        5.8227204755
 Si         9.2356975677       -8.8894774257        0.9097845093
 Si        -5.0762969332        9.1801887941       -4.8351609823
 Si         0.2142298271        3.8950107702        9.3559464404
 Si        -2.6381280129        5.1038661697        8.5469558432
 Si         6.6485685061        2.4135780668       -7.5876781485
 Si         5.7236775389       -8.0247474876       -6.4438007962
 Si         2.6869000666        1.7417541383       -6.9128984538
 Si        -1.0872443232       -8.1664483232       -5.4229742008
 Si        -5.5966835901        1.8303116228       -5.5852814001
 Si         7.0226517534        6.1781309179       -1.4335731827
 Si         8.4206517213       -7.8098270991        3.8680018110
 Si         7.0621520012        7.5384071795       10.8161439152
 Si        -5.9293749151       -5.1237563420       -6.5608447689
 Si        -9.2516625680       -1.2557614320       -6.1612095080
 Si         0.7547246889       -8.8503093315        7.1263882820
 Si         8.2093075614       -3.6286662876       -1.4720712907
 Si        -4.3085846371        2.6457825938        9.6119856052
 Si         4.3618292387       -0.9187706745       -7.7059648469
 Si         0.7039748577        6.0759109191       -6.0879224658
 Si        -7.1463266437       -4.5678801243        7.8161004779
 Si        -2.4515128952        6.1289281774        5.6325277152
 Si         5.0495602971        8.0907109837        5.6611922546
 Si        -3.9400380635       -7.4392367548       -6.2456412106
 Si         7.4263638864      -10.0299324834       -4.5812835029
 Si         1.8401791553        8.9673821160        9.7279458799
 Si         6.7191874703        8.7244451552        0.2393092864
 Si         7.0962401676       -1.7091709114       -7.1425290214
 Si        -0.0141258188        3.0887732229       -7.0040081050
 Si        -9.5496606399       -5.0515345052        3.0249196630
 Si        -3.5485907078       -6.5531987120       10.3818524572
 Si        -7.8085061047        0.3155197950       -4.0122944857
 Si        -7.9022025183        5.7679518142        0.4488422118
 Si        -6.5364906670       -9.3494744103        3.0608550323
 Si         6.4809317208        7.1100477944        2.9374205447
 Si        -1.7338408707        9.0000364706        6.4323246715
 Si         8.2503516792        3.3552378605       -0.5543156105
 Si         5.6223782062       -6.9396637695        5.1630983314
 Si         9.2966764128       -9.6949656810       11.0721040046
 Si        -9.8364706374        1.4747262934        8.3014452680
 Si        -9.4222106561        3.0286781441        4.5201530756
 Si        -6.1125830778       -1.8867794462        8.5515461558
 Si         9.3370623820        6.7318949314        7.1384301103
 Si         6.6315820464       -5.7578379232       -2.8848396516
 Si         9.8135411952        6.8852000880       -2.0906857607
 Si        -8.9369573496        2.9439873883        1.4337525719
 Si         2.4762875577        5.9019758077        9.4593592366
 Se        -2.6406648138       -2.5428730631        3.6653209437
 Se        -1.2125215935       -4.2693607682       -5.6484971892
 Se        -5.1929670074       -5.3070429793       -0.6480360454
 Se        -1.8562067622       -6.6926951855        2.3841433482
 Se         1.4417720410       -6.5000826305       -0.5627566384
 Se         1.7391982524       -8.9136424485        3.2011352230
 Se        -6.4226886796       -2.0594327755        2.4567141198
 Se        -4.0841258860       -1.8036843743       -4.3055951266
 Se        -4.5000053009        0.3667874673        0.0190180308
 Se        -2.1118536707       -1.1965612592        8.3729015851
 Se         3.7596238399       -1.9960730580       -0.7126626734
 Se        -2.4302894099       -3.2321696710       -0.4682126852
 Se         1.1836841910       -2.9434174367        1.5599548771
 Se         0.4019784225       -4.7842803078        5.6224918707
 Se         5.1528137354       -5.7405533732        1.0220953495
 Se         5.6001857247       -4.7553600205        5.4118059750
 Se        -2.1533023955        3.7577211320       -2.0647812018
 Se        -4.2385297354        3.7127513290        2.4416613395
 Se        -0.8782590638        1.5000280781        4.6096660398
 Se         0.0206650667       -0.6108809460       -2.6585383989
 Se        -0.7475454884        1.0216188269        0.8618289848
 Se         0.5241997973        4.5843423770        1.9723389200
 Se         1.1416955705        2.6425196018        7.7057336555
 Se         4.9282424719        0.0937264509       -3.8391139653
 Se         3.6592920012        1.2602802023        2.5336683108
 Se         1.2932072205       -0.7159185025        5.7170411453
 Se         3.4185608127       -1.7416593063        6.6455866986
 Se         7.6880511590       -2.5616227394        0.4654376910
 Se        -2.3452899595        7.7359517514        0.9713200258
 Se         2.6847028317        7.8048960760        1.1075029205
 Se         2.3679947572        3.3396139219       -1.6619163635
 Se         5.3872083440        5.2827930392        2.3259356804
 Se         6.4061385546        1.9499715680       -1.0032926948
 Cd        -6.8657892102       -3.6647120615        0.5215886969
 Cd        -4.3639201179       -3.7932501756       -2.5936982714
 Cd        -3.0595681582       -5.0503834237        4.0710791356
 Cd        -2.9662055858       -1.3984044149        5.9672514971
 Cd         3.1512751792       -4.6106727484       -0.3780576782
 Cd        -0.8027149025       -4.8753072086        0.6873144094
 Cd        -7.3932844071       -0.3027780510        0.8096821124
 Cd         1.1996640337        1.8483750325        2.4083388386
 Cd        -3.8489695730       -1.9075368074        1.2916826212
 Cd        -1.0136340072        1.0672672064        7.3148343325
 Cd        -1.3841928924       -1.9495234800       -4.4732826856
 Cd         5.0433951317       -1.2814005189        4.4699989548
 Cd         0.2630469744       -6.7306746558        3.9024433531
 Cd         2.9442284659       -4.4382351256        5.7687756922
 Cd         3.5587999789       -1.4029991655        1.8925786719
 Cd         2.9032883577       -7.0840715716        1.4459847195
 Cd        -1.5057920822        5.9873058483       -0.7279810509
 Cd        -3.1709308675        2.7804341340        0.1704976046
 Cd        -3.4127154947        2.0545666761        4.3718772916
 Cd        -4.4942551312       -0.1489267230       -2.4939281087
 Cd        -0.0984050065        2.3125757262       -1.3357187926
 Cd        -0.4041491455       -1.3951217082        0.0054964627
 Cd         0.2147640107       -2.3424764883        7.6667836227
 Cd         2.5184568619       -0.4899593030       -2.6364168224
 Cd         6.2462510212       -0.6754331109       -0.7090945470
 Cd         0.3063722082        3.9557836374        5.2230559097
 Cd         5.4926417228       -3.6969747398        2.5989695646
 Cd         0.1713883759       -2.4885481357        3.8678318255
 Cd         2.3870234864        5.7419862945       -0.6027497299
 Cd         0.1843430006        7.8332613283        1.3488341661
 Cd         2.9413926932        5.6798490341        3.0472616364
 Cd        -2.0973267444        5.1494528706        2.3724149538
 Cd         3.9888364184        2.4431708435        0.2655169854
