402
 i =     8100, time =    16200.000, E =     -5882.4050990161
  O         6.6621337219        2.4724662671       10.4766506862
  O        -5.4543099551       -2.8786130115       -7.8050258637
  O         9.0930568839       -4.9342523621        6.5070776002
  O        -7.4809735289        8.1905517630        1.3684179519
  O         1.8205086065        8.7905855257       -4.1802486413
  O         8.1120937460        7.8572411595        2.9887557479
  O        -5.9670832631        8.1295786475        3.5035408580
  O         5.4231835592        6.9635716733       -5.5014089770
  O        -7.8997816923       -4.7363665066       -0.6091231113
  O         8.5244379283       -2.3554235516        5.7310816983
  O         9.2203001074       -1.4128773501       -2.7066245601
  O        -3.2355148217       -1.5481333696       -7.8108904643
  O         8.3980918683       -0.2576981690       -6.5780678947
  O        -5.1083828825       -5.0969991275        9.6573218391
  O        -7.2350903066       -0.1721414849        9.4387818222
  O        -6.4584951062        6.7067240617       -0.6000978423
  O        -0.0850207291       -6.4395835099        7.5603077863
  O        -6.5700033186        1.9521822482       -4.9428035342
  O        -1.8218090870        8.6306573416        6.0005771500
  O         8.2419420764       -4.3538490947       10.4664794435
  O        -8.0854087221       -5.7393832478        5.3531652629
  O         6.7116160794       -6.6339222877        3.8211646716
  O        -8.5743387091        0.1367219943       -7.6618159181
  O         3.7343060990       -9.0481123339        4.9762506255
  O        -7.7175459263       -2.2474765910       -3.3975456422
  O        -8.6293669241        7.6064664597        3.5237525149
  O        -2.8931103356        7.6293856050       -7.6864825696
  O        -7.0173124991        1.8602836571       10.7646931486
  O        -5.1100433437       -6.8818371301        6.1145879228
  O        -8.9257617523       -7.2384248303        7.1539012432
  O         0.5992140040        7.3176837350       -2.2795396628
  O         3.5281438994        3.4566788869       -5.8139048671
  O        -7.2117269665       -6.6725306056        3.0634162774
  O        -3.8853570577       -6.6000297815       -8.0062886680
  O         7.0451881505       -8.1999436702       -3.3565899115
  O        -7.2891094665       -3.7499575772        9.2146125656
  O         8.7116558455        6.7806452637        7.7994154646
  O        -4.0213842951        2.8779204481       -6.1180705814
  O         4.9286846062       -4.6757428369       -3.5208742468
  O        -6.9247915913        6.8390270930       -5.0947684305
  O        -5.7956493153        4.1673000365        9.9451763762
  O        -1.9489554743       10.2256143222        7.9017948328
  O         5.7784140223        3.3692842667        6.5297286546
  O         4.5749834338        4.1542673500        8.6799002119
  O         9.4669509782        2.3998404919        9.6231656317
  O        -2.5515912896       -5.8031875119        9.0667523607
  O        -7.6207198727        8.0146802936       -7.2703347692
  O         4.8376295138        0.6658170799        9.9688826217
  O         6.4689680425        9.4443459746        9.0675221914
  O        -0.0806728078        4.1034823488       10.3514493060
  O         5.7944766253       -6.4371831364        6.2898116806
  O         4.9423436406       -6.3883573391       -5.4495451372
  O        -3.6138907793        5.0952419854       -7.2483740111
  O         2.6615839024        8.6256036276        9.3275778373
  O         8.4176623969        3.7838765947       -7.4804070136
  O         0.8538667208        5.3764684247       -6.8574316492
  O        -8.6622690713       -1.3328323613       -5.6326866170
  O         9.6639214950        2.7483433393        4.8127031901
  O        -4.9172302518       -5.0281609467       -6.2059898932
  O         4.7309089379       -7.1867411095       -2.7588998726
  O        -8.2856912609        9.2488483589       -5.1866228278
  O        -1.7416013683        9.6347770060       10.5468543484
  O        -6.1041652128        8.1263506812        8.4054133362
  O         3.3427714527       -5.6903631546       10.1887267582
  O        -7.8913843407       -1.0070656884       -1.0417998901
  O        -6.3135875403       -4.4543689221        6.9206121380
  O         0.2784522126       -6.3039362691       -5.3379013177
  O        -6.9026765051       -3.4673433832       -5.5939032069
  O         6.5986236366        1.2785782031        8.0375513328
  O        -9.1597549807        1.2526894818       -5.3682012497
  O         4.2658628172       -3.8468675472       -7.4961847042
  O        -9.6521680991       -3.7705338831        1.1591172989
  O        -8.2305374642        5.6520121531        0.8619980126
  O         4.4993251616        5.4766545719        6.4512494348
  O        -6.7692140633       -9.3976130206       -1.0242436025
  O        -6.7984786285       -8.6214409394        8.2317806667
  O         4.2368132961        7.9561596188        5.9715769452
  O         6.5410920462       -2.1283418715       -7.3950760221
  O         3.2948854387        3.6282405520       -8.4708793923
  O        -1.0628264727        5.8803384621        8.6942177161
  O         6.8772873144       -5.1655702485        8.4097000585
  O        -5.5755514595        0.7239598109        7.5918292044
  O         9.9485433149        4.7478679611       -4.5242946368
  O        -5.7888509438       -4.9220727111        4.3300713690
  O        -7.6328238633       -9.2693446929        3.2487511687
  O         7.5466306721        1.4861084269        5.6465602926
  O         9.3787443643       -2.2420080442        3.2602406011
  O        -0.3125532554        7.5328220808       -7.7208952483
  O         7.3504493187       -7.7200806380        7.8199650684
  O        -7.5072394919        5.3527976742       -2.5263663055
  O         9.0947528696       -3.6424126608       -1.3069117668
  O         6.0017891755        6.8510774368       -2.8628814642
  O         9.0735023640       -5.2853588221       -6.4789126421
  O         5.9361229007       -3.2591763546        9.7534104564
  O         5.9934461549       -9.6079450044        6.4952740887
  O         8.8565561530        4.3198251878        0.6867258937
  O         8.3532406401       -3.0705582407        8.2521143810
  O        -4.7207533303       -1.1128566456        9.4687837577
  O         6.1902464974        3.0435593448       -6.3263924643
  O         6.5787893049        9.5521156013        1.5649273650
  O        -6.3147852280        9.5657747060       10.5558613808
  O         1.9338808784        8.1887363547       -6.6856171700
  O        -7.4597667031       -6.5009096589        9.3666327159
  O         7.1238703197       -0.8992484246        3.9028960080
  O         3.9661575917       -6.2588521088        4.6132979676
  O        -7.1556082412        5.7154117809        7.6385238331
  O        -8.3576252025        2.9358532884        0.2368006311
  O         4.9141639089       -6.9690049159        8.6394578928
  O         9.0190470793       -6.1167750066       -0.1438783986
  O         9.0155104946       -7.0248497566        4.9073172465
  O         6.8596338007       -5.7578944269       -2.0232186193
  O         6.8922972553       -3.0176178356       -2.6245360333
  O        -0.3271780313       -8.4827848921        5.9290764975
  O         9.7938703490        6.9379765041       -5.9273764035
  O         7.2529014957       -0.1587526880       10.2602512595
  O         0.9401517387       -9.2625190142       10.6068284174
  O        -2.4200727945       -6.1311496762       -5.9116314045
  O        -1.6138503490        9.2229749044       -6.0992967957
  O        -3.6746486045        5.2838327405        9.1139489948
  O        -7.1988928357       -5.5590419452       -3.1360775309
  O         7.6517442394        5.9208829017       -4.5977028806
  O         3.2320933181       -8.3317496831        9.9778136270
  O        -0.7113449889       -7.8902047807       -7.1566604515
  O         6.7458604083        9.0824201699       -5.0740315598
  O         5.7778582648        9.0435148829        3.8919717731
  O        -0.7453722715       -7.3985578173        9.7405467431
  O        -8.4902499508        7.8794464645        7.0716675679
  O        -0.7887336146       -2.7033162760       11.2259449698
  O        -8.5848645553       -7.8912258857        0.3782495997
  O        -5.6856084738        4.4487374399       -4.6503764132
  O         8.2633044045        3.2743298203        7.4340090949
  O        -5.1729293708        6.3710581849       -2.9505069210
  O        -0.2899060657       -4.7404728181        9.6515574707
  O         8.5312379597       -8.9009323416        0.0322865079
  O         6.3522102681        8.5479488526       -0.7264503199
  O        -6.0852364097       10.2747637736       -3.7015118197
  O         8.7737973717        7.8459699353        5.4196141480
  O        -3.8498582130        7.6427630478        4.7193217432
  O        -4.1424836806        1.7346968278        5.7382578857
  O        -5.4121233546        9.3702769870       -6.3857178234
  O         9.0432180572       -8.7723957672       -4.9407403192
  O         7.5279634621        7.2381034627       10.1685790019
  O         2.0050294191       -8.4360985486       -5.8350196947
  O        -7.0103332216        8.0458195828       -2.7418693933
  O        -5.7757386552       -0.2453774138       -7.6287028897
  O         1.9642929950       -7.1811210274        5.9134833821
  O         6.6001473260       -5.6877785813       -7.4573659048
  O        -8.4386543144        2.8526143119       -3.2942847354
  O        -5.0933276481       -8.0907847146        3.6971078440
  O         8.7063356170       -4.8931624216        3.3039613212
  O         4.1531954153        9.3560031437       -5.9178763323
  O        -7.9927885279       -7.3780052398       -5.2602032781
  O         3.3314055274        1.1703027717       -7.1555819067
  O         6.5036409831        5.6525614501        8.2206385154
  O         5.8556158736        0.3412435091       -6.9538915196
  O         2.5174598760       -5.9297195721       -6.7916066228
  O        10.3581329721        9.4782150019       -2.4573799022
  O        -8.6890644029        3.9547688277        2.7327260664
  O         4.9635645707       -7.4174904788       11.4081197010
  O        -6.3149834737        3.7286051338       -6.9865929017
  O         6.0121970861        8.6660734272       -7.6273906261
  O        -9.1411400692       -8.5562579798        9.4269493261
  O         4.1969268927       -1.3983061936       11.0877072093
  O        -8.1201968194       -4.1998369250        3.1512797225
  O        -3.6312689370        9.5358029206       -4.4920538142
  O         3.8350506197        6.2617288154       10.0610648623
  O        -6.2273679249       -1.9313038552        7.5435313369
  O        -5.3518565736        9.7873449414        5.7380729710
  O         7.5498916888        6.0800851852       -0.7806661892
  O        -6.0845834157        3.3839131662        6.5884164214
  O         0.1674492900        6.9759144203       -5.0771271480
  O         5.7499778386        4.7317504033       -8.1736127446
  O         5.3772464655        4.6651629680       -4.3091289215
  O         9.3830742236        4.4725690224       -1.9694410720
  O        -2.9090321403        6.2316341996        6.7231636359
  O        -1.4823885235       -8.1370556053       -4.5815827765
  O         1.0660834410       -2.3639219731        9.1398562943
  O         1.5336863432       -3.9478835243       11.2245781066
  O         8.3325504583        9.6113024673       10.8881840555
  O        -1.3703230325        3.7720796740       -6.8968572505
  O        -9.0234544002       -8.6757717685       -7.2978655577
  O        -2.9886066606       -8.3138951203        5.4615324207
  O        -7.9404982011        0.2647464679       -3.2590669477
  O         9.2517862198        5.5235297533        4.2954853417
  O        -4.2694210672        9.9717499226        9.1270325566
  O        -3.2766287838        3.1250134441       -8.7602339014
  O        -1.5847650025        6.2858485219        4.4142526948
  O         1.2638426245        2.7910058642       -7.1179265450
  O         8.5873870816        9.3712724563        7.4414910475
  O        -2.9679557085       -4.1756613238       11.0672111694
  O         1.2398891868        6.3658238395        9.7025315677
  O        -7.0339519046       -4.9620341598       -7.8782353569
  O        -8.6396218033       -3.0050507477        7.0879306539
  O        -6.0830491948        7.2874846014        5.9331017252
  O        -3.8691400287       -4.3979862922        5.8384930246
  O        -4.1251527798        2.6997216491        8.2807840116
  O        -8.3725246518        4.1235738461       11.0245129485
  O         7.4091314704       -4.8174146411       -4.5529681353
  O         8.6731973136       -7.0419162040       10.9366494721
  O         8.8160686717        5.0013927173        9.7582690154
  O        -6.1268165012       -8.3507784642        1.3714098410
  O        -8.4321276016        3.5937511486        7.7795813305
  O         6.3177779689       -8.1932595965       -0.7368220159
  O         6.9273051213       -7.9449415360       -6.0914472693
  O         8.7488389456       -7.3854087753        2.2259621046
  O         2.2667527736        6.3600516540        5.0903380747
  O        -9.7680242705       -6.1584878110       -3.8674688978
  O        -6.2991688493       -6.8067241428       -0.8090747118
  O         9.8851703012        7.0149982374       -3.3785074174
  O        -9.6497120700        1.2847826686        7.0332759888
  O         2.6750135053       -6.3133308293       -4.1055689257
  O        -9.4864153274       -3.6628943644       -4.7819009609
  O         9.3862275247        0.0160412592        4.5452601968
  O        -5.3219327044        7.1603083585       -7.9363882063
  O        -2.8026417792        7.8166213151        8.9241727313
  O        10.3846630736        7.4080487351       -0.7980242307
  O         1.3417186002       -8.7618703161        8.0938852352
  O        -7.9156341066       -7.9654467390       -2.7220965784
  O        -7.9889312480        4.6029945454        5.3068284259
  O        -1.0229960246        8.8177519759       -3.6094524815
  O        -4.6917912552       -7.5504117389       -5.4601305760
  O        -4.2594599382        6.7898995641       -5.4583683697
  O         8.1944519935        8.3769758400       -2.1464821783
  O         2.6250388399        6.7475155657        7.6392949311
 Si         2.9890048244       -7.6244611894        4.7313713622
 Si        -6.7555667977       -5.1333287471        9.8642692758
 Si        -4.0176704610        6.6168171459       -7.0429497958
 Si         6.3725137965        1.1163945943        9.6626149445
 Si        -9.5547273685       -4.6577408693       -0.2601181184
 Si        -9.4663878600       -6.2236243079        6.0333384092
 Si         9.2718151156        7.1613540814        4.0054057073
 Si        -8.1403647147        7.7088250545       -5.7509956356
 Si         4.1907255508       -7.0574643246       10.0517337048
 Si        -3.0128462501        3.6567443898       -7.2452035764
 Si        -8.9098429047       -8.7031051858       -5.6986236446
 Si         6.1095109342        6.0855054840       -4.2987757524
 Si         3.3760973647        6.5892485479        6.2232359897
 Si        -7.1500083067        0.2980273349       10.9983821085
 Si         8.2076386389       -5.6156506552       -7.8339113083
 Si         6.2734141944       -6.5457943235        7.8281465784
 Si        -7.3460705918        9.7860636838       -2.5583636684
 Si        -5.2752086670       -5.1356891288        5.8584006473
 Si         4.3583778471        4.6732511669       10.2446347027
 Si        -4.8016390852       -1.4082554215       11.1222325603
 Si        -6.9561157959        7.2689646252        7.3417650923
 Si         2.5472736937        9.3491386428       -5.6122035482
 Si        -5.5512301342        6.0759826499       -4.5544741761
 Si         5.2007705538       -2.6987036838       -8.1966810544
 Si         7.0596972453       -9.3450226316        7.6798317177
 Si        -7.3270570103       -5.3813487791        3.9283394822
 Si         5.0924959044        3.3149532896       -5.1574839030
 Si        -1.5976323628        8.4700793821       -7.5036310526
 Si        -8.1823984469       -2.7217380758       -4.9189158393
 Si         5.4323304565        4.6922648255        7.4598204632
 Si         4.3097207389       -6.1688158163       -3.9666816917
 Si         7.0076169584        2.3932298296        6.9174623195
 Si        -8.7480719170        4.3794625164       -3.0043257010
 Si         9.1976679431       -3.3502814889        6.8911016262
 Si        -6.7584254116       -5.4917204848       -1.5734960652
 Si        -2.2402931001       -2.9279660636       -7.5525779379
 Si        -6.5301027531        6.6737888016       -2.1517411332
 Si         9.4747667439        3.8158827007       10.5727414629
 Si        -8.0909951906       -7.7479764444        8.5339616199
 Si        -2.7076888253        9.4192164548        9.0503328792
 Si         0.3611605978       -3.3213412600       10.2426076406
 Si         8.5386121401       -1.3859715995        4.4061308786
 Si        -5.0342733999        2.1897161177        7.0056314282
 Si        -6.9875098919       -8.1436707171       -0.0489192413
 Si         2.9436804866       -4.7686820646       -7.8673950083
 Si        -5.8807984898        9.6486897033        9.0039258027
 Si        -8.4627878512       -1.1112169765       -2.4925035769
 Si         5.5892664384        8.5027674344       -6.0617720438
 Si        -8.2171989295       -6.7776126532       -3.7406275544
 Si        -7.4372958800        8.5120862335        2.9280165701
 Si        -5.2758307654        8.2724787327        5.0056690925
 Si         0.4229094617        7.9418481620       -3.7576526853
 Si         6.2105845563       -7.3813562112       -2.1538437863
 Si         7.9220753901        6.1817001165        9.0799813698
 Si         8.9903447638       -5.0515864650       -4.9219745830
 Si         7.3430503056       -3.8862513677        9.2140844173
 Si        -2.0266712756        9.6741376981       -4.5892414609
 Si        -4.6340327136       -8.1932435371        5.2951108186
 Si        -0.4591573771       -8.4832796373       10.8040508520
 Si        -6.9050954078        3.4428977272       -8.5006513804
 Si         1.8563906308       -6.7697785830       -5.5268688836
 Si        -6.1221528477        8.5383005376       -7.6109999407
 Si         9.2630887255        6.1261195636       -4.6369438326
 Si        -7.3975056816        4.3519543858        6.7988158481
 Si        -0.9378841236       -5.9747954720        8.9432312749
 Si         9.1845460662        1.3387229890        5.4548006476
 Si         9.2170073529       -7.5379297823        0.6219629879
 Si        -5.1137337946       10.2695967700       -4.9862183937
 Si         0.2760736711        5.1418010691        9.1874298743
 Si        -2.6222505818        6.2934817699        8.3178340429
 Si         6.7776842640        3.5921601069       -7.7400160536
 Si         5.8181025006       -6.8775850245       -6.7302439986
 Si         2.9037321771        2.7154710831       -7.1089627393
 Si        -1.0739091874       -7.0616153628       -5.7441126615
 Si        -5.6351382741        3.1285074328       -5.7055951129
 Si         6.9894539299        7.3772052419       -1.6627652129
 Si         8.2704761098       -6.5411043161        3.5024660766
 Si         7.0353377763        8.7607895123       10.4811021522
 Si        -6.0758944607       -4.0923048799       -6.8972708808
 Si        -9.3658812421       -0.0602102386       -6.3169131854
 Si         0.7889740335       -7.7106627126        6.9125755313
 Si         8.2333406826       -2.3733022827       -1.8064582448
 Si        -4.2513496212        3.8308218814        9.4886529043
 Si         4.4909809049        0.1940312048       -7.8992050725
 Si         0.7487639609        7.0360921447       -6.6118788701
 Si        -7.1389349399       -3.2613796391        7.6284373932
 Si        -2.4209788662        7.1760521392        5.4195685950
 Si         4.9813408056        9.2655459975        5.2966133987
 Si        -4.0080643022       -6.3532118750       -6.3225430499
 Si         7.4512740883       -8.7415524418       -4.7978968714
 Si         2.0707371865       10.1178951092        9.4525413032
 Si         6.9689451043        9.8912837982        0.0475479522
 Si         7.1036990846       -0.6065187799       -7.4924909779
 Si         0.1697201375        4.0259763411       -7.4531938976
 Si        -9.6368344758       -3.7509365813        2.7927957787
 Si        -3.6119106849       -5.4558808381       10.2685760469
 Si        -8.0392656008        1.5466075930       -4.1855276993
 Si        -7.8404397398        7.0335089747        0.2689521924
 Si        -6.4989412808       -8.1360179172        2.9125498293
 Si         6.5114939438        8.3217491010        2.6281779694
 Si        -1.7885801133       10.2499488875        6.2288379826
 Si         8.2762360379        4.5815232567       -0.7876598585
 Si         5.5394961608       -5.9052576371        4.7786357684
 Si         9.3859393806       -8.5616636781       10.7821948069
 Si        -9.7612087097        2.6202533884        8.0112722358
 Si        -9.2342360646        4.1997711481        4.2183480524
 Si        -5.9432007963       -0.5627936334        8.4822810685
 Si         9.3523932049        7.9841901557        6.9361358430
 Si         6.6075725672       -4.5487970498       -3.1293340522
 Si         9.8017738776        8.0422409125       -2.1527273908
 Si        -8.8954782134        4.1208979851        1.1210087651
 Si         2.6650929137        7.0098986040        9.2155130191
 Se        -2.5710645395       -1.2014612911        3.4849195356
 Se        -1.7951690787       -3.3368696544       -5.1942654771
 Se        -4.8687435674       -4.1167627010       -1.2636535110
 Se        -1.8492783244       -5.1642624938        1.9397391203
 Se         1.5001407344       -5.1535008051       -0.5739693414
 Se         1.6700973059       -7.5094548389        2.7777258393
 Se        -6.5635134028       -1.2274247701        2.1110617666
 Se        -4.1494206735       -0.3315748604       -4.4092356077
 Se        -4.9918621492        1.7862267696       -0.0255197636
 Se        -1.7639151191       -0.1237304087        8.2135430133
 Se         3.9095922363       -0.8642258728       -1.4169929796
 Se        -2.3035322821       -1.6365321887       -0.9253590693
 Se         1.2178569721       -1.4351392166        1.1895406426
 Se         0.7318576975       -3.4852223437        5.3043272811
 Se         5.4773179604       -4.5032567990        0.6873628536
 Se         5.7349658366       -3.7199288645        4.6491920164
 Se        -2.1889167298        4.8392004321       -2.0613669460
 Se        -4.2067569728        4.7513435239        2.3631741437
 Se        -0.5706788993        2.6498795412        4.5555291835
 Se         0.2684058838        0.8801459848       -3.1391879138
 Se        -0.5521387213        2.3278497480        0.7042308915
 Se         0.7015010704        5.9142140105        1.9051059659
 Se         1.2744597339        3.9338399549        7.6217263642
 Se         5.1145113653        1.3250681467       -4.0219301468
 Se         3.8000981531        2.5430658109        2.3162189449
 Se         1.6541911182        0.4822199222        5.7152079671
 Se         3.8503649363       -0.3841409998        6.2648004105
 Se         7.6375968278       -1.2324074995        0.0688572482
 Se        -1.8956593410        8.7560556341        0.7649202944
 Se         3.1352064534        8.9201892944        0.8683444570
 Se         2.7947211835        4.5656918300       -1.8574554564
 Se         5.4913173404        6.2231818852        2.2736228001
 Se         6.5445235812        3.2539685067       -1.5487135580
 Cd        -6.6653534778       -2.5166486275       -0.0558141656
 Cd        -4.0362013516       -2.8423751475       -3.5130199098
 Cd        -2.8711250873       -4.1328794197        4.0274601624
 Cd        -2.8330323099       -0.0688682963        5.7589668145
 Cd         3.5228830010       -3.3958083957       -0.8720415850
 Cd        -0.3952807302       -3.4771438877        0.2237123466
 Cd        -7.4177080284        0.8444714264        0.5330930886
 Cd         1.2418971745        3.1029351470        2.4633364180
 Cd        -4.1701159113       -0.5738438636        1.1598196020
 Cd        -0.2508149313        1.8597534534        7.4309652930
 Cd        -1.5042987145       -0.7553661638       -4.3930385872
 Cd         5.0547231475       -0.1199028946        3.7875087725
 Cd         0.1855860929       -5.2872227910        3.4472275589
 Cd         3.3407522001       -2.7287843631        5.0792756539
 Cd         3.5611528973       -0.1028524939        1.3136042360
 Cd         3.4116399340       -5.9707397600        1.4825291777
 Cd        -1.6147084219        7.1555198984       -1.1547787606
 Cd        -2.9204898187        3.7721728261        0.3220143842
 Cd        -3.1593340122        3.1800533593        4.1124137871
 Cd        -4.1987104546        0.4443330555       -2.0317275497
 Cd         0.2849930870        4.1204312211       -1.1744699491
 Cd        -0.2781652902        0.0879925009       -0.5600334187
 Cd         0.5488969981       -1.3769775937        7.3141073166
 Cd         2.7231092436        0.8325697679       -3.5528975121
 Cd         6.1929545291        0.7101704792       -1.0057139961
 Cd         0.4944298466        5.0681787835        5.0651957337
 Cd         5.5805454927       -2.2377192305        2.0676402278
 Cd         0.2467052018       -0.8195571505        3.4182713666
 Cd         2.4180460859        7.0933216307       -0.9899899127
 Cd         0.5617195045        8.8253268399        1.1992784624
 Cd         3.0169410316        6.8284777656        2.8201691116
 Cd        -2.1172323667        6.5164935999        2.2405981436
 Cd         4.5431241987        3.9797561246        0.1014924655
