402
 i =     6000, time =    12000.000, E =     -5882.3910006088
  O         6.7472177082        1.2326855811       10.5660783433
  O        -5.5629035444       -3.7702343197       -7.4544399342
  O         8.9749598695       -6.0151065868        6.6851823954
  O        -7.6482050322        7.1359458656        1.4494030927
  O         1.5158100071        8.1486240534       -4.0046133208
  O         7.9840414126        6.8687217879        3.0946040192
  O        -6.0311823817        7.0850024472        3.5249090761
  O         5.3236203257        5.8680645719       -5.3914054552
  O        -8.0440408143       -6.0500464643       -0.5864563345
  O         8.6745466116       -3.3309070046        6.0535097507
  O         9.0821520416       -2.5024464008       -2.4168404507
  O        -3.3173305162       -2.4539509391       -7.6921253675
  O         8.3494491348       -1.3541281841       -6.3706362889
  O        -5.1285578779       -6.3387217710        9.6981235438
  O        -7.2554142379       -1.2732991180        9.6405724749
  O        -6.4422320567        5.6363193863       -0.3481741549
  O        -0.0834628302       -7.4009591178        7.8543336572
  O        -6.4474227080        0.9762774555       -4.5909399804
  O        -1.7873803014        7.6395894699        5.6138030951
  O         8.3758215735       -5.3250007565       10.9508500448
  O        -8.1938585789       -6.6837896649        5.4823621724
  O         6.6927863214       -7.6117372646        3.9143342647
  O        -8.6133739895       -1.0869217746       -7.5678705481
  O         3.7740944315       -9.8788639901        5.5172893887
  O        -7.8933644594       -3.3596991052       -3.0218457957
  O        -8.7557005590        6.6222783548        3.7617373739
  O        -2.4230706322        5.8657473680       -7.2837006194
  O        -7.0681885728        0.9169743543       11.0743891117
  O        -5.3130210766       -8.0187662364        6.2352195800
  O        -8.8246510649       -8.2606776005        7.3959667931
  O         0.6204835875        6.5449596463       -1.9378552092
  O         3.5636865530        2.0412179124       -5.6461204066
  O        -7.3125654357       -7.6876502138        3.2256255334
  O        -3.6774511762       -7.5029706201       -7.8094469723
  O         7.0432825264       -9.4404723312       -3.1413548040
  O        -7.0194287024       -4.6413545561        9.4509327854
  O         8.4638740932        5.5792630699        7.7278942006
  O        -4.1041866318        1.6487952803       -5.8788939811
  O         4.9631460284       -5.8686257982       -3.3131099916
  O        -7.0124848557        5.5315411443       -4.7994686981
  O        -5.7785501058        3.0596509677       10.3374944023
  O        -1.9922847838        8.6849077457        7.9918883971
  O         5.6041459013        2.1738457638        6.9654490910
  O         4.2862007622        3.1239164094        9.0025805903
  O         9.4392549220        1.6028851613        9.7078922537
  O        -2.6588016166       -6.9041431004        9.0445857288
  O        -7.3122498113        6.6119923469       -7.2511494028
  O         4.7896648086       -0.3693284833       10.0521090643
  O         6.2876592976        8.5115033991        9.4377181128
  O        -0.3498700245        3.1545786645       10.5723867233
  O         6.3246973327       -7.1835282767        6.5351227392
  O         4.9714938422       -7.5684529951       -5.2768250723
  O        -3.9920109439        3.9600636952       -7.0168726367
  O         2.4352229087        7.6169647685        9.8553372850
  O         8.3706838304        2.9175592215       -7.5058714385
  O         0.5773434491        4.6058389623       -6.8242793394
  O        -8.8432022973       -2.4794139709       -5.4058838518
  O         9.4752867578        1.7574612071        4.8760078384
  O        -4.7124872863       -5.9201025677       -5.9451011383
  O         4.7511141256       -8.3893057798       -2.6738147384
  O        -8.1734548823        8.0216507502       -5.1546017692
  O        -1.7801440906        8.4587672715       10.8478587085
  O        -6.1793877224        7.1242924372        8.5411586644
  O         3.2965076588       -6.6143117462       10.3323968620
  O        -8.2038090071       -1.9624042244       -0.6850611503
  O        -6.2002732707       -5.5682962807        7.1341182531
  O         0.2772353023       -7.5163862728       -5.1618039236
  O        -6.9700326451       -4.6128139298       -5.3074701959
  O         6.7244356969       -0.0284294299        8.2884025679
  O        -8.8840475586        0.2160468818       -5.3682364577
  O         4.1306075587       -4.8365851683       -7.2802717096
  O        -9.4915860133       -4.9773918714        1.3246453043
  O        -8.3738168377        4.5385407778        0.9893047819
  O         4.4188511076        4.4874379639        6.5738159865
  O        -6.8104548222      -10.4174662777       -0.7460971395
  O        -6.6875846701       -9.5036970389        8.6676447711
  O         4.2629829582        6.9636466925        5.8912703231
  O         6.4851067551       -3.1893850845       -6.9472481177
  O         3.2003505805        2.8982909968       -8.0971919405
  O        -1.2468881539        4.5493806090        8.4764189181
  O         7.0728222376       -6.3826216059        8.9048690169
  O        -5.7060368877       -0.3068862384        7.6615799118
  O         9.8921998414        3.6217133069       -4.3270963761
  O        -5.8401422959       -6.0645420713        4.5663081261
  O        -7.6532547825      -10.3753176528        3.3945777871
  O         7.3741862700        0.5172155014        5.7731683413
  O         9.3080014776       -3.3953648460        3.4113569784
  O        -0.1557263147        7.1142584645       -6.9663278067
  O         7.4223866311       -8.8351284137        8.1838153865
  O        -7.7874712102        4.3948924035       -2.3085012355
  O         9.0397206214       -4.9016322206       -1.1224737098
  O         5.9764997761        5.7263763043       -2.8368291433
  O         9.1237387188       -6.6885722715       -6.1116586549
  O         6.0065123230       -4.2788852639       10.1071527075
  O         5.9610104717      -10.5836405787        6.7858506755
  O         8.8412708289        3.2701223127        0.8687457703
  O         8.3916029522       -4.1873074381        8.5241107654
  O        -4.8854152667       -2.0457796512        9.6425982186
  O         6.1910230138        1.9532606863       -6.2113200764
  O         6.4352479450        8.4160295270        1.6433792848
  O        -6.3209691601        8.5534412847       10.7991995779
  O         2.1338693638        7.0155422831       -6.2636873859
  O        -7.7253604421       -7.2504540847        9.5098129960
  O         7.1980434685       -2.0165614668        4.1598660949
  O         4.0688718644       -7.2056554667        5.0541150320
  O        -7.0660984501        4.7385385499        7.7127273033
  O        -8.2375068541        1.8748444904        0.5886843476
  O         4.9548442095       -7.9751448356        8.8319308654
  O         9.1439590617       -7.3083739695        0.1170680889
  O         9.1338421925       -8.1715374490        5.0201988663
  O         6.9021703948       -7.0879103984       -1.9005833973
  O         6.9037230093       -4.3122498258       -2.3598700516
  O        -0.4943215059       -9.4818125348        6.1405757234
  O         9.9472526738        5.8043966050       -5.9081402277
  O         7.2352573187       -1.3631756339       10.5663227322
  O         0.7632966247      -10.1874187052       10.8013047259
  O        -2.5183208525       -7.2089870538       -5.4810210758
  O        -2.3509768358        8.1782555133       -5.9863708757
  O        -3.7555229322        4.2356376093        9.1998057328
  O        -6.9739405624       -6.9193582938       -3.0288773064
  O         7.7294139485        4.8949924293       -4.6920810894
  O         3.0943112094       -9.2941394610       10.0673537989
  O        -1.0255821669       -8.9151611487       -6.9449601145
  O         6.6405522964        8.1191797226       -4.8605097303
  O         5.7767367198        8.2597035208        4.2000318505
  O        -1.0522281991       -8.6344884872        9.8156867470
  O        -8.6109698004        6.8986616670        7.6102645052
  O        -0.7783983917       -3.5721705613       11.1750434207
  O        -8.4619182768       -8.9050449445        0.9289703982
  O        -5.3574958731        3.3837575553       -4.3927567039
  O         8.0002432368        2.2735302545        7.6100519904
  O        -5.2937980019        5.2164761288       -2.7412012232
  O        -0.3819470584       -6.0203633267       10.0908153374
  O         8.3302761342       -9.8933670234        0.0424613227
  O         6.1333746168        7.5135446763       -0.6786393207
  O        -6.1682613682        9.2674848236       -3.4981935500
  O         8.8736616371        6.9816409439        5.5610641567
  O        -4.0221774208        6.4028645198        4.7890151578
  O        -4.1605103888        1.0254497285        5.8681579380
  O        -5.5522829971        8.4646391548       -6.0778307408
  O         9.0113008578      -10.1142869338       -4.7597557708
  O         7.3565121787        6.2632945840       10.1019242276
  O         2.0946420344       -9.4904150194       -5.8184807486
  O        -6.9835824829        7.1471143877       -2.5964679072
  O        -5.8374190425       -1.1444157017       -7.4885929737
  O         1.8541144519       -8.2977674733        6.1555954054
  O         6.7989347139       -6.5950380175       -7.0218012365
  O        -8.2777817276        1.7911717780       -3.0071408618
  O        -5.1301492517       -9.1441349830        3.8897509362
  O         8.7729236742       -6.0294272591        3.5002505739
  O         4.1337222896        8.2440476029       -5.4680286364
  O        -8.0292727171       -8.6467878665       -4.8689954612
  O         3.0806879051        0.1692083949       -7.4467566621
  O         6.3571785258        4.4409579522        8.2934047664
  O         5.6099551934       -0.6582289993       -6.9461056342
  O         2.4138784215       -7.0050974193       -6.7283411989
  O        10.3101004933        8.4567044993       -2.3823796494
  O        -8.7895381655        2.7333448455        2.9844840303
  O         4.9982108101       -8.2657383945       11.5417793402
  O        -6.6032678112        2.8425218037       -6.5642785652
  O         5.9466739816        7.6776118688       -7.3681745308
  O        -9.0854397949       -9.5741381574        9.6906355348
  O         4.0980292372       -2.4374825167       11.2802085279
  O        -7.9799585914       -5.1188179267        3.3223152005
  O        -3.7540633135        8.8415674914       -3.9195742454
  O         3.6955053535        5.3010474465       10.2480695882
  O        -6.3366976433       -2.9079447968        7.6878219071
  O        -5.2289334429        8.6112693049        5.8495608060
  O         7.3437951799        5.0259057224       -0.6294320013
  O        -6.2949573017        2.2099405684        6.8591566689
  O         0.2846114327        5.9319753459       -4.6490170178
  O         5.7446211760        3.6194016718       -8.1844013661
  O         5.3736804625        3.5704858675       -4.2430714946
  O         9.1856726422        3.3532519160       -1.8261074658
  O        -3.1015353097        5.6356718755        7.0664472027
  O        -1.4760953715       -9.3627856804       -4.4616343873
  O         0.8701434923       -3.8401729454        9.0084509559
  O         1.5070285095       -4.8100228027       11.4647346240
  O         8.4086288428        8.5223827758       11.0648856498
  O        -1.5253419255        2.6376217284       -6.5983072827
  O        -9.0496918647       -9.6350270101       -7.0698823976
  O        -3.0889756286       -9.3570807589        5.7506363662
  O        -8.1651330146       -0.7647606406       -3.0141722072
  O         9.1229288073        4.5785617082        4.3448137239
  O        -4.2263542915        8.7239396614        9.3566563068
  O        -3.3932008350        1.9942852311       -8.4950876704
  O        -1.5366846347        5.1846434263        4.8882435932
  O         1.0868546232        1.9671814274       -6.8751978660
  O         8.5016069474        8.2459093679        7.8679468631
  O        -2.9633220090       -5.0103690641       10.8766941153
  O         0.9959532733        5.3811704178        9.8098012841
  O        -6.9276139864       -6.0325808542       -7.6354476717
  O        -8.5943692646       -4.0581196248        7.2447141115
  O        -6.5752425032        6.5864106877        5.9581717261
  O        -3.6650134113       -5.8007737782        6.1827248297
  O        -4.3155951059        1.7162071883        8.5339060696
  O        -8.4580268166        3.1759872611       11.1326419732
  O         7.4829452658       -6.0409710745       -4.2038304807
  O         8.6722601569       -8.0456795697       11.0896335696
  O         8.8143119481        4.1318990524        9.7355263613
  O        -6.0461359625       -9.4576644530        1.5720818213
  O        -8.7114168363        2.8842078043        7.9145592177
  O         6.0095449981       -9.2878803603       -0.6067633907
  O         6.8672485447       -9.0176730276       -5.9468501517
  O         8.7106584321       -8.5357384577        2.4270966503
  O         2.2211176752        5.4619694027        5.1355111456
  O        -9.6216294070       -7.1274270038       -3.5388954565
  O        -6.2865026664       -7.8343163562       -0.4258870075
  O         9.7484880930        5.9775611851       -3.3876204816
  O        -9.6451316117        0.3709501686        7.2084477626
  O         2.7065489923       -7.4516037644       -4.1074234240
  O        -9.6113851571       -4.7377091390       -4.4704617190
  O         9.5287820465       -1.0372744638        4.8647489182
  O        -4.7514151702        6.5558054355       -7.5961021593
  O        -2.6166214614        6.5769302905        9.4716655224
  O        10.3260416179        6.3548085492       -0.6887453557
  O         1.2229011591       -9.8775661394        8.1807091832
  O        -8.1185631045       -8.9685029982       -2.1004256468
  O        -8.0389481176        3.4747837106        5.4657653698
  O        -1.2285840680        7.5873209355       -3.4723478483
  O        -4.7330488990       -8.5393558262       -5.4122437551
  O        -4.3345604683        5.8133578968       -5.1883341481
  O         8.1285455154        7.2364501221       -2.0147792258
  O         2.7156073534        6.0445767027        7.7464044546
 Si         3.0353447399       -8.4858510387        5.0219011986
 Si        -6.7064012381       -6.1467636438       10.1198227148
 Si        -3.9255166075        5.5278528340       -6.7290466970
 Si         6.3983083107       -0.1776705948        9.8995689240
 Si        -9.5460336501       -5.8208106648       -0.0444348036
 Si        -9.5164024672       -7.3012977804        6.2162209823
 Si         9.1346169847        6.2395010436        4.1953029206
 Si        -7.9644294768        6.5564041002       -5.7473277465
 Si         4.0886404094       -8.0620462314       10.2385950252
 Si        -3.1900443258        2.4651762944       -6.9837735286
 Si        -8.9573646653       -9.9278697779       -5.4860980637
 Si         6.1945646241        4.9967451851       -4.2135083358
 Si         3.3572011939        5.6492188416        6.2563748657
 Si        -7.2055288601       -0.7015292296       11.0876228059
 Si         8.3671780830       -6.6404543469       -7.5413319335
 Si         6.3168989063       -7.6225217911        8.1227187720
 Si        -7.4275978572        8.7834324827       -2.3122593612
 Si        -5.1735968234       -6.3192838515        6.0801751771
 Si         4.2884177210        3.8443611154       10.4334759424
 Si        -4.9312820059       -2.4132378013       11.3219356880
 Si        -7.1142150674        6.3041144494        7.4512500479
 Si         2.4523409661        8.3474197323       -5.3646748371
 Si        -5.5468655973        4.9851460368       -4.3206958260
 Si         5.1329073386       -3.7011668383       -7.8830773588
 Si         7.0805823928      -10.4609765815        8.0142142392
 Si        -7.3298667388       -6.3809526854        4.1849954056
 Si         5.0970505807        2.1247754302       -4.9917258447
 Si        -1.7358856598        7.2788904069       -7.2285130730
 Si        -8.2571025454       -3.8275373196       -4.6205388650
 Si         5.1323380504        3.5680725217        7.6751709100
 Si         4.2904396725       -7.3006046044       -3.8275581596
 Si         6.8142049038        1.1810862102        7.1784988266
 Si        -8.8704965232        3.3199644694       -2.8655981846
 Si         9.1945775732       -4.4217567883        7.1225296738
 Si        -6.7554860288       -6.6092551763       -1.4264228477
 Si        -2.3388727294       -3.7896873819       -7.6708102958
 Si        -6.7218337783        5.6533186898       -1.9634520160
 Si         9.4375844240        2.9450966576       10.6157199635
 Si        -8.0943146641       -8.6112080751        8.7774145697
 Si        -2.7608888318        8.1407810939        9.2605454550
 Si         0.3300839210       -4.5103502114       10.3145777303
 Si         8.6827978356       -2.4723147652        4.6327109981
 Si        -5.0468643553        1.1480648328        7.2309178230
 Si        -7.0034776369       -9.1787239814        0.2286020575
 Si         2.8478366782       -5.7471969360       -7.7440316308
 Si        -5.9214335468        8.5683605511        9.2433042914
 Si        -8.6828978089       -2.1423816767       -2.2369241951
 Si         5.5743702579        7.4397304748       -5.8122009617
 Si        -8.1765020231       -7.9112141130       -3.3518295311
 Si        -7.5881476864        7.4373791969        3.0055317224
 Si        -5.4536030039        7.1812764424        4.9581729287
 Si         0.3484117037        6.9955435463       -3.4494286972
 Si         6.2164818130       -8.5453432388       -2.0595064640
 Si         7.6987799750        5.0233612533        9.0898464164
 Si         9.0538975135       -6.1355966030       -4.5753055774
 Si         7.4267499320       -4.9438735482        9.6398487873
 Si        -2.1412499453        8.5922256313       -4.4154779812
 Si        -4.7420397154       -9.2636049767        5.5050167926
 Si        -0.6843662825       -9.5575415339       11.0429853506
 Si        -6.9419658283        2.5110901984       -8.1332392728
 Si         1.8850024211       -7.8913791421       -5.4882795533
 Si        -6.0014893737        7.6133250755       -7.3409925422
 Si         9.3041451258        5.0785974164       -4.6011602160
 Si        -7.4305491696        3.3207777800        6.9603745866
 Si        -1.0727856205       -7.1466412111        9.1583085204
 Si         9.0561343843        0.3579406143        5.5756759447
 Si         9.2853172098       -8.7331405954        0.8594270244
 Si        -5.1304262463        9.3134323894       -4.6831600648
 Si         0.1688252905        4.0795770675        9.2873708125
 Si        -2.7003241560        5.2106935443        8.5407382322
 Si         6.7493886912        2.4478940800       -7.6382376409
 Si         5.9252500571       -7.8527390985       -6.5623454693
 Si         2.7367527425        1.7870373238       -7.0448197354
 Si        -1.2142528780       -8.1888992668       -5.4631206636
 Si        -5.6803169772        2.1769143527       -5.4315185305
 Si         6.8286664420        6.3334561548       -1.5201056036
 Si         8.3660109279       -7.5856604224        3.7302251748
 Si         7.0253694276        7.7149928906       10.7063562819
 Si        -6.0523030749       -5.1249403588       -6.6001147526
 Si        -9.4289340120       -1.1590535440       -6.1179182328
 Si         0.6085459410       -8.7645479930        7.1198845178
 Si         8.1214401547       -3.5926966435       -1.4959920817
 Si        -4.3010520086        2.8044189220        9.7402613931
 Si         4.3203843602       -0.7714073410       -7.9082493725
 Si         0.7580537299        6.0730740461       -6.1798835830
 Si        -7.0636026087       -4.3884744179        7.8324735401
 Si        -2.5551624082        6.1462524024        5.5850952685
 Si         4.9514782593        8.3695445398        5.6035940585
 Si        -3.9535673518       -7.3831586039       -6.2215193627
 Si         7.4259634789       -9.8647850342       -4.6536078295
 Si         1.8953562435        9.1104360069        9.5844137087
 Si         6.7565137508        8.8147947817        0.1134806084
 Si         6.9719312707       -1.6266170610       -7.1694718117
 Si        -0.0699224085        3.0932134758       -7.2173832381
 Si        -9.6121025082       -4.8577780006        2.9542362853
 Si        -3.6116527469       -6.4206639943       10.3581658066
 Si        -7.9562011641        0.5410978630       -3.9710275454
 Si        -7.8849835333        5.9460287563        0.3545331883
 Si        -6.5174793861       -9.1938986607        3.0395707210
 Si         6.4354754670        7.3983313708        2.9303337738
 Si        -1.9419264750        9.0624858465        6.3885050395
 Si         8.1104337482        3.5563225748       -0.5899713978
 Si         5.7130058203       -6.9280120260        5.0676786319
 Si         9.4110111857       -9.4504720287       10.9916754539
 Si        -9.8955064652        1.7378152101        8.0703122716
 Si        -9.3323577851        3.1704629812        4.4308445678
 Si        -6.0314218109       -1.5914862471        8.5817672664
 Si         9.1707114668        6.8564580849        7.2224853607
 Si         6.5585808586       -5.8288340510       -2.9263999180
 Si         9.7490699255        7.0247432979       -2.0837062831
 Si        -8.9428938709        3.0433997612        1.3580345965
 Si         2.4882555514        6.0941751515        9.3667277377
 Se        -2.4536848390       -2.3264692054        3.9040203733
 Se        -1.8186186305       -4.2793558460       -5.5019998550
 Se        -5.1454370437       -5.0035075665       -1.1136025854
 Se        -1.9891874278       -6.6021497967        2.4010527525
 Se         1.4746888045       -5.7626306868       -0.4795709719
 Se         1.9666630572       -8.5507325641        3.0331073384
 Se        -6.6458068655       -2.0509498021        2.4992620507
 Se        -4.2165281979       -1.5955933944       -4.4007919981
 Se        -4.8841224366        0.3104753361        0.1050881391
 Se        -1.8633433511       -1.0437950760        8.4825804820
 Se         3.6462333794       -1.2706966121       -0.6723156572
 Se        -2.2371510591       -2.9272312385       -0.3268330969
 Se         1.1497789192       -2.6391873181        1.4490664406
 Se         0.5884401342       -4.6444094070        5.4282833990
 Se         5.2598843895       -5.3310469029        0.8761529437
 Se         5.5385941496       -4.6693608161        4.8694232019
 Se        -1.9328104470        3.7268076852       -2.0580853917
 Se        -4.2855001205        3.7090948155        2.4030391035
 Se        -0.7911269604        1.4847616902        4.9159773705
 Se        -0.0581560243        0.0509750224       -2.8414231515
 Se        -1.1233303026        1.0244309427        1.0074522322
 Se         0.5456841041        4.5768517111        2.1465087578
 Se         1.2406117659        2.8639164055        7.7081313160
 Se         5.0765878057        0.1989541166       -3.7743035053
 Se         3.4589411615        1.6887865439        2.6785524660
 Se         1.5822784072       -0.8638986559        5.8456273006
 Se         3.6793157197       -1.6850162266        6.3772411125
 Se         7.6251465851       -2.4448967616        0.3595133698
 Se        -2.3696370314        7.4985926747        1.0512010774
 Se         2.6917658327        8.0107777334        0.8521300971
 Se         2.6199366630        3.3123732840       -1.3826900587
 Se         5.3457253500        5.3390120117        2.7295875892
 Se         6.2996410333        2.0991867987       -1.1227661622
 Cd        -6.6790461369       -3.2863582900        0.3484100166
 Cd        -4.0928944549       -4.1742705697       -3.5996588221
 Cd        -3.1125732357       -5.0263901132        4.2092007315
 Cd        -2.9824704272       -0.9383121345        6.0258587727
 Cd         3.3895612206       -3.9297464996       -0.4721527777
 Cd        -0.6526685384       -4.7966756161        0.7512509336
 Cd        -7.6820032856       -0.1655321830        0.7686368158
 Cd         0.8450652400        1.8549755234        2.6195048426
 Cd        -3.9022475941       -1.8326406225        1.5102187204
 Cd        -0.4583271298        0.9220932726        7.7086585170
 Cd        -1.5134488647       -1.8329690514       -4.3154620337
 Cd         5.1654522155       -1.2234494981        4.1171651319
 Cd         0.1160374975       -6.6162079280        3.7531271862
 Cd         3.1580509537       -4.3887011738        5.5914211119
 Cd         3.5442733345       -1.0262668677        1.8799568023
 Cd         3.1248556650       -6.5421259350        1.5699101640
 Cd        -2.0646535407        6.2178232932       -1.1807250725
 Cd        -3.3490015839        2.5862251715       -0.1659425027
 Cd        -3.0783281119        2.5475454852        4.2337170934
 Cd        -4.0548796903       -0.8487462571       -1.9905854986
 Cd         0.0774969175        2.8931104330       -0.5406943643
 Cd        -0.2395566985       -1.0690361385       -0.3273844113
 Cd         0.0712589470       -2.4797109974        7.4923540910
 Cd         2.6775068346        0.0279663746       -2.8868230194
 Cd         6.1762528263       -0.5761750849       -0.9177930289
 Cd         0.4278134238        4.0225738385        5.1007497460
 Cd         5.7791269600       -3.2812713203        2.3426232081
 Cd         0.4564774146       -2.3771628965        3.8702503651
 Cd         2.4872648953        5.9346548440       -0.9112395064
 Cd         0.2030124799        7.6374303086        0.8340729946
 Cd         2.7542289172        5.9391510066        2.9217912061
 Cd        -1.9985857424        5.1699502699        2.5357027123
 Cd         4.2779752137        2.6840568761        0.5878257567
