402
 i =     8700, time =    17400.000, E =     -5882.4113911344
  O         6.7474809536        2.8730501463       10.4100956742
  O        -5.4550042351       -2.4991780059       -8.0650530823
  O         9.2152628162       -4.7610022270        6.4293806657
  O        -7.6109425542        8.0760022796        1.2439739359
  O         1.5916028276        9.4917394256       -4.3541066767
  O         8.2035525177        8.0869373906        2.8870377066
  O        -5.9863146807        8.2592003680        3.2815260362
  O         5.1940893906        7.2709817684       -5.4802937957
  O        -8.0677211679       -4.6110464936       -1.2641805092
  O         8.7479969911       -2.2862461276        5.5499652693
  O         9.3747862423       -1.4177330642       -2.8707508687
  O        -3.2506421346       -1.0875234397       -8.1150985315
  O         8.4458033204        0.0814833310       -6.8315281890
  O        -4.9961547646       -5.1609655251        9.3080618388
  O        -7.1920466183       -0.0861985932        9.0814898884
  O        -6.3582976126        6.9696027401       -0.7416744088
  O        -0.3129751552       -6.3083108391        7.3542671275
  O        -6.3839119723        2.2563467946       -4.8667787010
  O        -1.9070494112        8.8864724511        5.6585438929
  O         8.3441739691       -4.2022147657       10.3749938172
  O        -8.0076340189       -5.6011775053        5.1364269602
  O         6.6667126975       -6.2454272706        3.4840509043
  O        -8.4981234952        0.4845386881       -7.9148547084
  O         3.9614680277       -8.6001924966        4.8830301525
  O        -7.4629597863       -2.0460067544       -3.6238990476
  O        -8.6203638015        7.9660070815        3.6409907535
  O        -2.5388240545        7.3779164499       -7.6435853975
  O        -7.0487706443        2.2360972441       10.2379632974
  O        -5.0611543802       -6.6082375654        6.0431509478
  O        -8.9538844546       -7.0853518255        7.0741602474
  O         0.6698102991        7.6176132638       -2.4230493022
  O         3.5930712494        3.7123737866       -6.1562372619
  O        -7.1715223533       -6.4618826565        2.8079391384
  O        -3.5364665933       -6.2141784400       -8.1019052891
  O         7.2432577300       -8.0098114936       -3.3697248073
  O        -7.0576103397       -3.5064786698        8.9845758914
  O         9.0221187817        7.0854050901        7.8041408996
  O        -3.9027054376        3.0073345225       -6.1100644523
  O         4.9657949851       -4.4268506491       -3.6015939350
  O        -6.8246574989        6.9194129352       -5.2530594061
  O        -5.7807261465        4.4239051579        9.8830020631
  O        -2.0591027537       10.3242877422        7.8293155583
  O         5.9886134418        3.7188382312        6.3871514009
  O         4.6524435349        4.2869467595        8.5939037182
  O         9.5370230393        2.5794386271        9.4453126175
  O        -2.5110585622       -5.3180381802        8.7653760807
  O        -7.7288883343        8.0793023803       -7.4849349634
  O         4.7803148556        1.1397375705        9.8116828832
  O         6.3445244614        9.5115139921        9.0971222677
  O        -0.2647527524        4.5116882352       10.2555270441
  O         6.2937006961       -6.2232960828        6.1783084490
  O         4.6435292019       -6.0879807533       -5.7456428168
  O        -3.8265030701        5.3073626884       -7.4544130222
  O         2.1664211429        8.7749119720        9.5122588253
  O         8.4718273709        4.1704861169       -7.7450935340
  O         0.8264546631        5.8774655119       -7.1474985878
  O        -8.6929812252       -1.2043589015       -5.9284638742
  O         9.4019313683        3.0019049122        4.6817560117
  O        -4.8561173368       -4.6764390140       -6.2449939099
  O         4.8300756601       -7.0099357734       -3.1427108542
  O        -8.3094632660        9.2982801366       -5.2626431097
  O        -1.9015737286        9.8476707673       10.5849632490
  O        -6.1070303194        8.2670112067        8.4398738410
  O         3.1981095073       -5.4832111910       10.1774943424
  O        -7.8653266524       -0.9712435375       -1.1562378833
  O        -5.9435861610       -4.1897588572        6.6914579944
  O         0.3116318928       -6.2096125966       -5.3951097588
  O        -6.9358220592       -3.2073766516       -5.9476817395
  O         6.6234610734        1.6291460474        8.0157544728
  O        -8.8083140832        1.4026705888       -5.5379118862
  O         4.2071134853       -3.5162954136       -8.0022309661
  O        -9.2299615144       -3.7677220254        0.9153958272
  O        -7.9218447645        5.4254808465        0.7024122592
  O         4.5440887993        5.7525885197        6.3420807185
  O        -6.5056856615       -9.1917380404       -1.3173034036
  O        -6.7170662290       -8.4256248048        8.1538500337
  O         4.4591605847        8.1468615881        5.3877608247
  O         6.5368762281       -1.6876243617       -7.4105279345
  O         3.2018779655        4.0559033377       -8.6507478694
  O        -1.2002676484        5.7448739999        8.2331822978
  O         6.6621478186       -4.9847604436        8.5699649233
  O        -5.4545482696        0.9549451206        7.3494765618
  O         9.8462131418        4.8084065940       -4.4780810083
  O        -5.6759963153       -4.7697297823        4.1468259046
  O        -7.4596230431       -9.0473735056        3.1178173499
  O         7.4697841475        1.5964916593        5.6478591445
  O         9.4004063094       -2.2300054829        3.0011364572
  O        -0.1176218590        8.1960932698       -7.6488657991
  O         7.2179385625       -7.6215638357        8.0841803449
  O        -7.5896570326        5.5303854336       -2.5845591489
  O         8.8970387813       -3.7506288452       -1.4317020513
  O         5.8829822021        7.0997895040       -2.8712941623
  O         9.2471434803       -4.9966618528       -6.5924221843
  O         6.2002626296       -2.6775098004        9.7435822886
  O         5.9971555308       -9.4208390886        6.5339181292
  O         8.9039633983        4.5746086945        0.6303957696
  O         8.3253989179       -2.8869040497        8.1325955464
  O        -4.7026825487       -0.9091455074        9.2405504642
  O         6.3698083857        3.6742417290       -6.3248751298
  O         6.4747514104        9.9646152971        1.5294996096
  O        -6.4505040571        9.8370438482       10.5425502307
  O         2.1489663427        8.5082747889       -6.7224020774
  O        -7.4696685841       -6.0525929789        9.1337381890
  O         7.2590017072       -0.8871560977        3.6011281257
  O         4.1003840173       -5.9905843416        4.6536883760
  O        -7.1260143670        5.9163965502        7.4866260086
  O        -8.4642543708        2.8086248728        0.3176320598
  O         4.8183127881       -6.8433903602        8.4451853882
  O         9.2499794486       -6.1220170338       -0.3058070140
  O         9.1025552928       -6.8878082174        4.6739955738
  O         6.8197254075       -5.6046185025       -2.2610789753
  O         7.0020608224       -2.8279468002       -2.7575584352
  O        -0.3276396850       -8.4657799519        5.8981806846
  O         9.8423171330        6.9738849654       -6.1436073017
  O         7.3392692000        0.2784378133       10.1710940865
  O         0.6830715342       -8.8291945633       10.5228607166
  O        -2.5310857628       -6.0000795334       -5.7099414042
  O        -1.9217590856        9.4941141295       -6.1552848223
  O        -3.7370715268        5.4844093000        8.8589660204
  O        -7.0662341641       -5.4707443480       -3.4041845580
  O         7.5643345171        6.1729782265       -4.7832081201
  O         3.0708635397       -8.0453230453        9.9634052378
  O        -1.0183656442       -7.5868133255       -7.1076411730
  O         6.7163590654        9.3340121248       -5.1588933723
  O         6.1578347814        9.4960429182        3.9701082007
  O        -1.0443765175       -6.8258268443        9.8613745692
  O        -8.2544783888        8.3856789945        6.9890710852
  O        -0.7491045538       -2.3423686879       10.6850029870
  O        -8.4382169266       -8.0524472931        0.2473868277
  O        -5.5042223545        4.6537317036       -4.7136059598
  O         8.3699057268        3.4506515025        7.2585636710
  O        -5.1568231218        6.5549798630       -3.0751079721
  O        -0.1927002966       -4.4187834888        9.3070102777
  O         8.4293495413       -8.7540493605       -0.2500053190
  O         6.2505912094        8.7788718637       -0.9068900445
  O        -6.1655143273       10.5529563577       -3.9529588510
  O         8.9348938688        8.0918823677        5.4609197375
  O        -3.7850916973        7.7476131490        4.3648050847
  O        -4.0568938184        2.3170223500        5.5518785461
  O        -5.4217071117        9.5447657192       -6.4116657964
  O         8.9105377321       -8.7066108674       -5.3808549366
  O         7.5979336878        7.4054263584       10.0671107642
  O         2.1424487248       -8.0107390780       -6.1427308150
  O        -6.9558662572        8.2423376954       -2.9501053784
  O        -5.8553153950        0.0366002297       -7.9558866828
  O         2.0284782568       -7.0698247763        5.9088650960
  O         6.7420719146       -5.3397008340       -7.2799287084
  O        -8.1785550142        2.9836962896       -3.2717126994
  O        -5.0418192078       -7.8522538227        3.6018750973
  O         8.8669688371       -4.8147909433        3.0241475778
  O         4.1983146196        9.7881928421       -5.7917641937
  O        -7.8434181847       -7.4436006912       -5.3369255857
  O         3.1913937379        1.5530281862       -7.5524706544
  O         6.6959283151        5.8008099427        8.0068647290
  O         5.7088995053        0.6537721071       -7.1525492449
  O         2.3193082863       -5.3074289401       -6.8557169093
  O        10.4570081618        9.5467838538       -2.5394841444
  O        -8.6699720421        4.1011120918        2.7399671489
  O         5.1992836275       -7.0068540717       11.1680610490
  O        -6.3891456748        3.8061100707       -7.0095133128
  O         5.8615870222        8.7550694249       -7.7166435827
  O        -9.1518480339       -8.2304467045        9.3851753529
  O         4.1219162710       -1.0358824422       11.0495240487
  O        -7.9173220621       -3.8467754891        3.0872248277
  O        -3.6626628582        9.9853508461       -4.3872323334
  O         3.7372547115        6.5319776286        9.7658939137
  O        -6.2320617021       -1.5893813101        7.1592636343
  O        -4.9165392660        9.9144257818        5.4075806440
  O         7.4260774417        6.2348488781       -0.9002570807
  O        -6.0242773376        3.6195584280        6.5724844505
  O         0.2431134326        7.4079537442       -5.0894508212
  O         5.7342512231        5.1718436627       -8.3517174919
  O         5.2469617738        5.0078814801       -4.3956646750
  O         9.4163284884        4.6464756485       -1.9888675146
  O        -3.1409958253        6.8258847245        6.6453737651
  O        -1.2947336296       -7.9741324404       -4.5070646399
  O         1.0769772398       -2.0530008329        8.8322194045
  O         1.5004916360       -3.4558681596       11.0921066088
  O         8.2603093669        9.8950330373       10.7475458949
  O        -1.4023920874        3.9543045136       -6.9527927217
  O        -8.9567033280       -8.5390993626       -7.3722601006
  O        -2.8633135249       -7.9078077591        5.4559037546
  O        -7.8217624584        0.4549751018       -3.3972350234
  O         9.1086857712        5.7227661991        3.9385020058
  O        -4.2648418016       10.1016967001        9.0918282558
  O        -3.2771255286        3.3242284306       -8.8742340441
  O        -1.5209379975        6.5495642154        4.3269382276
  O         1.1901402018        3.3317119054       -7.2654413128
  O         8.5513097605        9.6045502866        7.4293280924
  O        -3.1799361750       -3.7345419296       10.7504903906
  O         1.0388123934        6.5210931041        9.2681601734
  O        -6.8163732239       -4.7859917114       -8.0906710748
  O        -8.4327295150       -2.8997304681        6.8581002886
  O        -5.9911565363        7.5093716985        5.8462907344
  O        -3.4858096110       -4.3253962541        5.6033626277
  O        -4.0878177514        2.9589497364        8.1975866212
  O        -8.3649401725        4.4333977851       10.7426592898
  O         7.5431090957       -4.6103829689       -4.5420918144
  O         8.6411324308       -6.8675593102       10.9651561895
  O         8.7954437122        5.1574399436        9.3302120889
  O        -5.9555384035       -8.1611445958        1.1065647469
  O        -8.4114746389        3.6597671872        7.6837975382
  O         5.9497427205       -7.9324479964       -0.8731293962
  O         6.7012927381       -7.6477815987       -6.0361045471
  O         8.8546264319       -7.3230541519        2.0538101247
  O         2.4523271085        6.5680256034        4.7773931790
  O        -9.6608516258       -6.0535406401       -4.1116644856
  O        -6.3735909898       -6.5844202592       -0.8599194071
  O         9.9851211384        7.2253976727       -3.6243957776
  O        -9.4707170216        1.4384309660        6.8291512617
  O         2.6167138818       -5.9537224822       -4.2888141424
  O        -9.2994006930       -3.4966854823       -4.7108222263
  O         9.4166829120        0.1647446341        4.5645528456
  O        -5.1500953269        7.6326965304       -7.9648145006
  O        -2.5307785739        7.9141849795        8.9482666857
  O        10.2962655784        7.3752643579       -0.9084287720
  O         1.3138020304       -8.5074891416        7.9643040346
  O        -8.0004161254       -7.7410764756       -2.7245889714
  O        -8.1425864817        4.8461314918        5.2981236463
  O        -1.1084650314        9.0216107322       -3.6499312919
  O        -4.7241438950       -7.3808573226       -5.9656097678
  O        -4.0925484206        6.9459741334       -5.4045730867
  O         8.2380492848        8.3466890312       -2.2918368523
  O         2.6466966330        7.3374333046        7.3538304144
 Si         3.0702359218       -7.2197334013        4.6618425518
 Si        -6.5716154360       -4.7962845638        9.6819594843
 Si        -3.9779851955        6.8669402787       -7.0996176682
 Si         6.4113755543        1.4793323649        9.5958415336
 Si        -9.4652253811       -4.6162818869       -0.4820472184
 Si        -9.4134543370       -6.0884701239        5.8613649741
 Si         9.2647057478        7.4319138470        3.9706677414
 Si        -8.1295489682        7.7694753896       -5.9040794408
 Si         4.1317007581       -6.8145390403        9.9632245670
 Si        -3.0291439291        3.8455339969       -7.3477673804
 Si        -8.9157085444       -8.6376672275       -5.7884081448
 Si         5.9866529479        6.4285725994       -4.3679219664
 Si         3.4980813738        6.9194074135        5.9257505481
 Si        -7.1770656619        0.5992631744       10.5408879350
 Si         8.2884022742       -5.3680269557       -7.8593234507
 Si         6.2409662992       -6.3478356956        7.8106858341
 Si        -7.3189973787        9.9405742681       -2.7566130180
 Si        -4.9440455335       -4.9486179840        5.6592026450
 Si         4.3686457343        5.0265491793       10.0431800489
 Si        -4.8117152334       -1.0831183927       10.8865510519
 Si        -6.8610820837        7.4876787507        7.1897837212
 Si         2.5338640859        9.7451038298       -5.6496849922
 Si        -5.4368801554        6.2716613993       -4.6739846674
 Si         5.2380574901       -2.2322692527       -8.3785901944
 Si         7.0546745383       -9.2415762594        7.7889947075
 Si        -7.2803174231       -5.1319821436        3.7839700295
 Si         5.0485675936        3.6822981609       -5.3517086746
 Si        -1.6078129432        8.6512396540       -7.4871635953
 Si        -8.1187737100       -2.4894347104       -5.0649149278
 Si         5.4495809855        4.9046170273        7.3053810413
 Si         4.2358854984       -5.8313936647       -4.1626568740
 Si         7.0696170092        2.6366522052        6.8429570618
 Si        -8.7539802021        4.5196365316       -3.0088846775
 Si         9.2779388432       -3.1650172804        6.8191178816
 Si        -6.6949928682       -5.3196287421       -1.8165280837
 Si        -2.2448847457       -2.4730214462       -8.0412915795
 Si        -6.5605689980        6.8045664827       -2.3357647338
 Si         9.5080657199        4.0440188089       10.2880021073
 Si        -8.0113360261       -7.4173979723        8.4502639331
 Si        -2.7501037488        9.5354534884        9.0376618231
 Si         0.4691224212       -3.0562823951        9.8643365134
 Si         8.6525101447       -1.2522453042        4.2272941371
 Si        -4.9551375391        2.4890707969        6.8983608557
 Si        -6.8277381013       -8.0032581865       -0.2827507605
 Si         2.8679747915       -4.3819485215       -8.0640572760
 Si        -5.9695898133        9.8375801384        9.0162551045
 Si        -8.3367652195       -0.9425882226       -2.6667931411
 Si         5.4821412246        8.7624206991       -6.1059361447
 Si        -8.1319404191       -6.7118760432       -3.8811769716
 Si        -7.4514534348        8.7049939037        2.7932758393
 Si        -5.2057837429        8.3919233270        4.7315953366
 Si         0.4923937201        8.3694412909       -3.7799689226
 Si         6.2611902857       -7.1374029838       -2.3596282494
 Si         7.9890551758        6.4303690171        8.8397335519
 Si         9.1324374554       -4.7706182820       -5.0280762736
 Si         7.3471270473       -3.6994239272        9.2048570797
 Si        -2.0535796913        9.9598301380       -4.6217406382
 Si        -4.5395629025       -7.9130776274        5.1876314886
 Si        -0.6846902002       -8.0733564471       10.7985152303
 Si        -6.8596809137        3.7278609065       -8.5942123346
 Si         1.8890308820       -6.3920219690       -5.7246571308
 Si        -6.2345401429        8.7574996944       -7.6001992382
 Si         9.1418233153        6.3014607485       -4.7686620453
 Si        -7.4363084052        4.4820145195        6.7396566503
 Si        -0.9554834855       -5.7166494583        8.7267326705
 Si         9.1329581624        1.5437062116        5.3785030430
 Si         9.3914281082       -7.5611553138        0.4646482961
 Si        -5.0662457916       10.5975708523       -5.1626663510
 Si         0.1505363411        5.2324962082        8.8734012064
 Si        -2.6251862330        6.4872227427        8.1503902310
 Si         6.8594638696        4.0267720141       -7.8361414429
 Si         5.7711270870       -6.5416872561       -6.7567995468
 Si         2.8280104028        3.1244389238       -7.4546556887
 Si        -1.1749274713       -6.8705100208       -5.6738982865
 Si        -5.5185214017        3.3822442737       -5.7019713652
 Si         6.9415939441        7.6147915248       -1.7373437055
 Si         8.3040681415       -6.3268619493        3.2969576624
 Si         6.9716321846        8.9002467655       10.4459316608
 Si        -5.9938977952       -3.7925904759       -7.0717025401
 Si        -9.2937541897        0.1653171080       -6.5767442324
 Si         0.7005221825       -7.5351836605        6.7897144749
 Si         8.3166369105       -2.2886835782       -1.8588265302
 Si        -4.2357924586        4.0571661916        9.4022964490
 Si         4.3728700631        0.5616988965       -8.0804360829
 Si         0.8365500924        7.4628883440       -6.5837384024
 Si        -6.9102138551       -3.0460991799        7.3205117111
 Si        -2.4292312574        7.4159482597        5.2160057989
 Si         5.0997891246        9.5901562577        5.2061289624
 Si        -4.0044392571       -6.0471420863       -6.5102968390
 Si         7.3738688865       -8.5599523715       -4.8891607278
 Si         1.9287272764       10.3446283828        9.4055694316
 Si         6.7905718131       10.2074864921       -0.1097722623
 Si         7.0642412289       -0.1589309301       -7.6658280886
 Si         0.0919460367        4.4444381879       -7.5592258121
 Si        -9.4447196953       -3.6280073521        2.5376323672
 Si        -3.5836594533       -5.1393318761       10.0488681869
 Si        -7.8398800778        1.8093739369       -4.2977505663
 Si        -7.7978749047        6.9368183408        0.1049128371
 Si        -6.3438429992       -7.8798772933        2.6412589092
 Si         6.6524040784        8.6927972967        2.5961597772
 Si        -1.8364222987       10.3554795768        6.1803179649
 Si         8.2408016597        4.8498346859       -0.7842057132
 Si         5.7647366307       -5.6507979019        4.7722716116
 Si         9.3549881027       -8.2961239562       10.7316836292
 Si        -9.6563778664        2.7377245692        7.8066458621
 Si        -9.2504199521        4.4066049545        4.2105174716
 Si        -5.8220629203       -0.3831859983        8.1865454267
 Si         9.4890940253        8.3363385187        6.9276145098
 Si         6.6011102837       -4.3533887948       -3.3044687260
 Si         9.8314183198        8.1060636329       -2.2628783216
 Si        -8.9020562440        4.1173195172        1.1414562397
 Si         2.4277971012        7.2601677607        8.9553186021
 Se        -2.3838125247       -0.7588542539        3.3612639897
 Se        -1.8245154529       -2.9667714705       -5.8059270609
 Se        -4.8506065638       -4.0044591934       -1.4190781168
 Se        -1.8575682617       -4.9487032664        1.9700685925
 Se         1.5430696260       -4.2807953690       -1.0117903745
 Se         2.0028765558       -7.2001238546        2.6829469082
 Se        -6.3525683435       -1.0711268502        2.0469091339
 Se        -4.2146449560       -0.2065359878       -4.6498298647
 Se        -4.7880374296        1.8513428678       -0.0984450777
 Se        -1.8848689952       -0.0095518942        7.9235545864
 Se         4.0044685913        0.1471362335       -1.0502228750
 Se        -2.2483028065       -1.7436953256       -0.6741763920
 Se         1.4847409656       -1.0320676828        1.1812352789
 Se         0.7744722624       -3.3746431315        5.1556966910
 Se         5.0982606859       -3.7591591569        0.5413402037
 Se         5.9439914167       -3.4139986738        4.9464253599
 Se        -2.0652526507        5.1330673168       -2.2764598055
 Se        -4.1490895628        5.2235566524        1.9904095307
 Se        -0.7405054945        2.7384116098        4.2234983835
 Se         0.0799605828        0.9071319524       -3.1332842079
 Se        -1.0365235897        2.3570597213        0.5506150882
 Se         0.7291018079        5.7031750405        1.7210665246
 Se         1.2576430394        3.7896193902        7.5008740320
 Se         5.0416865823        1.7275190715       -4.1174682191
 Se         3.5123097322        3.2567548055        2.1014081659
 Se         1.6387570531        0.6706865246        5.3561720714
 Se         3.6475999077       -0.4457257240        6.3509172290
 Se         8.1120528054       -0.9297231451       -0.1293821237
 Se        -1.9593478550        8.9996600472        0.6122322112
 Se         3.0604848113        9.0104218032        0.2598763888
 Se         2.5360060687        4.5064012374       -2.2086981715
 Se         5.7356377793        6.6273583446        2.0620426933
 Se         6.5035974631        3.5167304692       -1.4986156588
 Cd        -6.4746617676       -2.3372262059       -0.1411296406
 Cd        -4.3478381103       -2.6095195263       -3.6916925974
 Cd        -2.8136858631       -3.3518380924        3.8588309421
 Cd        -2.8077520502        0.2857851545        5.5564268125
 Cd         3.3321399759       -2.3170454394       -0.7913470401
 Cd        -0.4588888773       -3.3832305621        0.3961850427
 Cd        -7.7791950598        0.8359294858        0.6746850577
 Cd         1.0103753561        2.9546541080        1.9170640188
 Cd        -3.7991375263       -0.4162115308        1.0244794223
 Cd        -0.5799860640        2.0282871939        6.9757929463
 Cd        -1.2677564988       -0.6592005993       -4.8291830553
 Cd         5.3017347625        0.2254812869        4.3109477877
 Cd         0.1387744180       -5.3914575608        3.4819529876
 Cd         3.2832855129       -2.8337215744        5.0877421298
 Cd         4.0792632102        0.5111628678        1.8146437631
 Cd         2.8590960083       -5.2018753085        1.1463940948
 Cd        -1.5516347983        7.5664948159       -1.5374031470
 Cd        -3.2208924822        4.0020399641       -0.1417727353
 Cd        -3.2927255178        3.7909013716        3.8888881347
 Cd        -4.4811791494        0.9784616688       -2.4621896955
 Cd         0.1128331914        3.9720904020       -1.4555029193
 Cd        -0.2547865278        0.1008616613       -0.4425927436
 Cd         0.2115217277       -1.3156195853        7.0508015081
 Cd         2.6901755825        1.1187680219       -3.2075758116
 Cd         6.7136334295        0.9215309890       -1.3368031080
 Cd         0.6473771912        5.0265799149        4.7168781784
 Cd         6.0338768590       -2.3107851811        2.3433609685
 Cd         0.3919928750       -0.7017490730        3.4196113278
 Cd         2.4925055470        6.9111834649       -1.1610768192
 Cd         0.6856279600        9.0793636320        0.5786432821
 Cd         3.0282050236        6.9310946689        2.5664782173
 Cd        -1.8622582023        6.6491359146        1.9918229499
 Cd         4.1009618612        4.0442534205       -0.2015545551
