402
 i =     6200, time =    12400.000, E =     -5882.4238795861
  O         6.5352120301        1.5654160700       10.6820884868
  O        -5.4881613280       -3.8120203448       -7.4523312706
  O         8.9151429127       -5.9501978908        6.6226278315
  O        -7.6958918936        6.9358378738        1.6770830272
  O         1.5949064004        8.1170848013       -4.0027577614
  O         8.0056610980        6.8073338732        3.1103776476
  O        -6.0590947761        7.0640957043        3.8475022862
  O         5.3350521076        5.9809431995       -5.2962602581
  O        -7.9630191411       -5.8404996541       -0.5117486845
  O         8.6239998054       -3.3406552191        5.8873793353
  O         9.3974781142       -2.4348737285       -2.2951105657
  O        -3.3747363239       -2.2799791460       -7.7574699344
  O         8.4671354996       -1.3435225097       -6.1659963539
  O        -5.1202542087       -6.2883504195        9.6938621226
  O        -7.4291631782       -1.1348286524        9.4497689962
  O        -6.3953157902        5.7840408219       -0.3579739539
  O         0.0128904597       -7.3970226182        7.9253271397
  O        -6.4380818202        0.9259835177       -4.6966394100
  O        -1.7483673560        7.8457711529        6.2763452100
  O         8.3318573882       -5.3130025787       10.6475886745
  O        -8.1799797856       -6.6519222359        5.4738741965
  O         6.6655722354       -7.5550200411        3.9610477708
  O        -8.6245576624       -0.6630359974       -7.4870273274
  O         3.8470426033       -9.8525602116        5.2126689768
  O        -7.6403794256       -3.2349736896       -3.1705108110
  O        -8.8544457594        6.7798481288        4.0220387771
  O        -2.9818497491        6.6203233179       -7.5996461751
  O        -6.9516259846        1.0099520237       10.6836017568
  O        -5.2559361249       -7.7845573119        6.2083304113
  O        -9.0239522173       -8.1393267228        7.5345571324
  O         0.5970285021        6.4782725473       -2.0881268377
  O         3.4779953540        2.1820771977       -5.4777898127
  O        -7.3128319102       -7.6360058741        3.0635235103
  O        -3.6064122123       -7.5187573574       -7.8983094197
  O         7.0676423116       -9.2171408330       -3.0258529195
  O        -7.1552657823       -4.7396585585        9.2839322199
  O         8.8297059091        5.9384246726        8.2009875968
  O        -4.0356674806        1.9765890466       -5.9020676670
  O         4.9530912099       -5.5716117946       -3.2143994956
  O        -6.9588195634        5.6616976264       -4.9248891679
  O        -5.9478463157        3.2748619662       10.0976564977
  O        -2.0875052740        9.6231478734        8.1503209695
  O         5.6143605840        2.1827781351        7.0990218030
  O         4.4118234862        3.3447132469        9.0209143546
  O         9.2322198877        1.4345158621        9.7176915836
  O        -2.4896054416       -6.7152148639        9.1082849099
  O        -7.7602218308        7.0829209253       -7.0864677875
  O         4.7567287745       -0.2642404653       10.2047780768
  O         6.3335759868        8.3618301278        9.3266250420
  O         0.0596979918        3.0772096446       10.4731613829
  O         5.7264245030       -7.4535598300        6.5828141450
  O         4.8250594700       -7.3128674533       -5.2544509096
  O        -3.7444993701        4.2421019539       -7.2878411212
  O         2.5268497012        7.6306661869        9.6859094052
  O         8.3294540960        2.7717944034       -7.3746524989
  O         0.6881239753        4.6489637855       -6.8207493529
  O        -8.4901994536       -2.5624176245       -5.7083547317
  O         9.4107145822        1.8312931042        5.0540569799
  O        -4.8633705189       -5.9816348003       -6.0172406791
  O         4.7211690670       -8.1821246145       -2.6761893786
  O        -8.3679154912        8.0969370382       -4.9207159722
  O        -2.0171340121        8.8150819511       10.7709622670
  O        -6.3549956182        7.1299648768        8.8840020751
  O         3.2122232411       -6.6549370570       10.3517587718
  O        -7.8320757092       -2.2124469697       -0.7278103980
  O        -6.2306927287       -5.2766853653        6.9410435659
  O         0.2998659607       -7.3121291288       -5.2062804728
  O        -7.0142558239       -4.6782722213       -5.3859290321
  O         6.7957047034        0.1575408387        8.4404803325
  O        -9.0011880343        0.1964131494       -5.1382263368
  O         4.2777663312       -4.9682311243       -7.4256646478
  O        -9.5279335099       -4.8831051729        1.4110181622
  O        -8.0381948704        4.3709014226        0.9835600988
  O         4.7311308280        4.4453664164        6.5181945598
  O        -6.7888315574      -10.3836719269       -0.8362261304
  O        -6.8934432140       -9.5679000175        8.6694875210
  O         4.0930437775        7.0351690814        5.8844203958
  O         6.5381494954       -3.2133474226       -6.8831543489
  O         3.3112626542        2.7505132194       -8.0755577290
  O        -1.2116678355        4.9302834814        9.1964630224
  O         6.9034986387       -6.3696712721        8.8236741624
  O        -5.6953409915       -0.2005508729        7.7101412387
  O         9.8682367711        3.6066583813       -4.0663811441
  O        -5.8040580851       -5.8974965494        4.4674462306
  O        -7.6495836131      -10.3296950720        3.2657254027
  O         7.3733817289        0.3729296380        5.8621254022
  O         9.4115742063       -3.3710312889        3.4665062738
  O        -0.4109132188        6.9268953286       -7.3949591289
  O         7.3371196814       -8.7481308758        8.1465060757
  O        -7.4760065209        4.3494423224       -2.2970588187
  O         9.0072901671       -4.7149809081       -1.0852202176
  O         6.0992186211        5.8019605345       -2.7164891913
  O         9.2603575210       -6.2356451567       -6.3048300626
  O         5.9440616344       -4.1978356748       10.0432350274
  O         5.8600885552      -10.5329862432        6.7290592728
  O         8.8335579944        3.4543551974        1.0523475341
  O         7.9589361375       -4.1207599591        8.2674485730
  O        -5.1231813902       -2.3601861981        9.5701654668
  O         6.1957895078        2.1600130852       -6.0183344613
  O         6.3307064774        8.5574215679        1.6908356032
  O        -6.2719553428        8.7883780378       10.9903255485
  O         1.7883429268        7.3393972753       -6.3790670889
  O        -7.7790766335       -7.3676959891        9.7219144456
  O         7.1703948235       -2.0683216373        3.8123109796
  O         4.0248938687       -7.3946521214        4.5203298718
  O        -7.5003431700        4.7888381608        7.8203540605
  O        -8.6067946901        1.6675096804        0.6448838314
  O         4.9684625642       -8.1251974381        9.0905123301
  O         9.1102474608       -7.1344704027        0.1823737149
  O         9.1211553265       -8.0814359764        5.0587926651
  O         6.8242346069       -6.8316297528       -1.7866066313
  O         7.0127005380       -4.0293817155       -2.4087156894
  O        -0.4196423775       -9.3223185055        6.2597389832
  O         9.8775623808        5.7253784460       -5.6359334589
  O         7.1711796447       -1.0977812007       10.7003651205
  O         0.5309420057      -10.2147030979       10.5506752214
  O        -2.3552212758       -7.0558312702       -5.6090334706
  O        -2.0970933970        8.3704274623       -5.9052897665
  O        -3.8050298560        4.5192082057        9.1800189172
  O        -7.2243722156       -6.6367875817       -3.0385451254
  O         7.6086680478        4.8743683212       -4.6195788766
  O         2.9387210866       -9.3365305383       10.4022100187
  O        -0.6221847598       -9.0375613046       -6.7105043169
  O         6.4774564505        8.1865682968       -4.7295122261
  O         5.7612492936        7.9846382799        4.1964016712
  O        -0.8910259139       -8.0247224041       10.3560627555
  O        -8.4058807487        7.2849438746        7.1435130342
  O        -0.9561749571       -3.3529709807       10.9114536316
  O        -8.4854961608       -8.9369883186        0.6765427135
  O        -5.6625117155        3.4364232448       -4.4112741169
  O         8.1123357744        2.3632003971        7.5312818370
  O        -5.1934305261        5.4520591934       -2.8434648220
  O        -0.2127881100       -5.5165354582        9.7081938127
  O         8.3930525981       -9.7692877719        0.3236886825
  O         6.0735494243        7.5245251032       -0.4967492433
  O        -6.1784227954        9.2470816950       -3.4282024145
  O         8.5790443592        6.8670888310        5.7330789836
  O        -3.7898652853        6.5107255346        5.1009314815
  O        -4.3596009159        0.8550193289        5.7789267193
  O        -5.5433406688        8.3250202841       -5.9080705319
  O         8.9236595523       -9.7390890579       -4.5908477935
  O         7.2818353068        6.1864550870       10.4872691583
  O         2.1418757886       -9.1809948756       -5.7940031879
  O        -7.1076793577        7.0391133449       -2.5698385318
  O        -6.0243122829       -1.2393219357       -7.6707594968
  O         1.9208121876       -8.1162461449        6.1675119512
  O         6.6837212137       -6.4592261397       -7.1060290939
  O        -8.2560214144        1.8009863000       -2.9378118456
  O        -5.2119465981       -9.1582851803        3.9063223862
  O         8.7187116872       -5.9740482721        3.4239230321
  O         3.9637752899        8.2407089400       -5.4129799064
  O        -8.0660898072       -8.5852318629       -5.0117056927
  O         3.0943346280        0.1688685457       -7.1933180546
  O         6.6849268125        4.5323461712        8.2847167024
  O         5.5937898368       -0.7660752704       -6.6658584259
  O         2.3655115241       -6.5466954825       -6.6006653770
  O        10.2797245082        8.4310989335       -2.2629543048
  O        -8.7014084058        2.7743945447        2.9602139797
  O         4.9839846193       -8.2261852177       11.7340849588
  O        -6.4960329481        2.6991852036       -6.7535075131
  O         5.8286265197        7.7203585771       -7.3330199827
  O        -9.3172953554       -9.5776460064        9.7046905229
  O         4.1539703411       -2.4267590156       11.2829446552
  O        -8.1228868308       -5.0994097504        3.5251121953
  O        -3.7104379973        8.8004171175       -3.9074383857
  O         3.7825587765        5.3538000778       10.4306150362
  O        -6.6488456990       -2.7322911279        7.5995221647
  O        -5.1991855167        8.7275852727        5.9807589701
  O         7.5630322846        5.1315246851       -0.5881897816
  O        -6.3062107048        2.4144892611        6.7418776285
  O         0.1494312314        6.1793059694       -4.7420586182
  O         5.7583677116        3.9085325681       -8.0262688740
  O         5.2397208805        3.6673765040       -3.9727878553
  O         9.4329261636        3.4632298259       -1.5876527312
  O        -2.7049522394        5.3148462058        6.9749441380
  O        -1.3247101238       -9.1864707808       -4.3112165820
  O         0.9250928899       -3.2504576229        8.9878370971
  O         1.5286754736       -4.5359491572       11.3138612909
  O         8.2198237212        8.6420213523       11.1934112015
  O        -1.4881451244        2.7878403126       -6.8478902901
  O        -9.1924650322       -9.7694460110       -7.0039194415
  O        -3.0256418950       -9.1627810956        5.6785904877
  O        -7.7880147183       -0.8009695445       -3.0334577124
  O         8.9522865438        4.5166488194        4.3020238633
  O        -4.3890374400        8.9641196680        9.2028103343
  O        -3.4103114394        2.1623878998       -8.6587210208
  O        -1.1532281184        5.8033951213        4.7904368161
  O         1.1619511095        1.9629556986       -6.8078833816
  O         8.5184256292        8.4740000999        7.5718054788
  O        -3.0879804966       -4.8552867851       10.8391187948
  O         1.2529177800        5.3529575880        9.8505415083
  O        -6.9451341418       -6.0118389036       -7.7315856830
  O        -8.7515963695       -4.2363016147        7.2829432231
  O        -5.9744847918        6.2596030221        6.4567521194
  O        -3.6938358432       -5.4428889110        6.0712663810
  O        -4.3102893328        2.0375948501        8.2707817541
  O        -8.5116707287        3.0939582262       11.1109341626
  O         7.4965504132       -5.8300785138       -4.1375582184
  O         8.6900749372       -8.0130871527       11.2153467099
  O         8.8615350288        4.1537116889        9.8434138214
  O        -6.0747512285       -9.3298683607        1.4479886692
  O        -8.5893956894        2.4974007076        7.8034569370
  O         6.0136382426       -9.2603112495       -0.6052499484
  O         6.9221424060       -8.7477118664       -5.7618426990
  O         8.7449703335       -8.4278034768        2.4381632288
  O         2.3725559717        5.1296936062        5.2897565074
  O        -9.6822308104       -7.0673979941       -3.6740703843
  O        -6.2943559535       -7.7281017280       -0.5349945179
  O         9.6701700617        5.9624068244       -3.0683077999
  O        -9.6457401631        0.2534730452        7.1063264373
  O         2.7058901243       -7.1270665136       -3.9325632447
  O        -9.6014752000       -4.5740570609       -4.3912434524
  O         9.3513499215       -0.9725174325        4.7590833678
  O        -5.4570875744        6.2801325289       -7.6332002210
  O        -2.6940214473        7.0578972102        8.9879202134
  O        10.3263721963        6.3285463170       -0.4532154801
  O         1.5633085310       -9.6835163853        8.1215180475
  O        -8.1442101349       -8.8823398676       -2.3238977937
  O        -8.2394219458        3.8511911005        5.4967150008
  O        -1.1907225551        7.8235369684       -3.4130672696
  O        -4.5665130234       -8.6536233106       -5.4403274304
  O        -4.3498435805        5.7149896085       -5.2953319678
  O         8.1593103757        7.2956304500       -1.7773945422
  O         3.0267977979        5.9458062317        7.8682040893
 Si         2.9681883933       -8.5310644847        4.8820228857
 Si        -6.7058745404       -6.1516252501       10.0471612116
 Si        -4.1291722586        5.7521558003       -6.9157286821
 Si         6.3274272862        0.1080409176        9.9471041802
 Si        -9.5609567203       -5.6393953484        0.0092104463
 Si        -9.4968197628       -7.2009066955        6.1742637476
 Si         9.0180325930        6.2042429228        4.2213177099
 Si        -8.1330723866        6.6205760987       -5.5705734432
 Si         4.0316878481       -8.0889354701       10.4469612208
 Si        -3.1023730825        2.6964302179       -7.1431292132
 Si        -9.0488145973       -9.8148004325       -5.3520067952
 Si         6.0569758113        5.0866751324       -4.1464976014
 Si         3.5064186615        5.5590734623        6.3379898425
 Si        -7.2543899833       -0.5543543723       10.9549299631
 Si         8.2623110333       -6.5358505760       -7.5978304167
 Si         6.2073722367       -7.6247052046        8.1369337513
 Si        -7.4458355030        8.8062974808       -2.3426441644
 Si        -5.1757749677       -6.0652060714        5.9693441265
 Si         4.2471209858        3.8053209787       10.5363406852
 Si        -5.0235660446       -2.4309622216       11.2347449013
 Si        -7.1290704027        6.3266392000        7.6070452312
 Si         2.3761778208        8.5572867740       -5.3872465218
 Si        -5.5578951622        5.0830383737       -4.3886061779
 Si         5.2551459160       -3.7388719501       -7.8732618890
 Si         7.0192101018      -10.3214210345        7.9456540642
 Si        -7.3069248780       -6.4236531759        4.1256703257
 Si         5.0535558299        2.2853929429       -4.8665539219
 Si        -1.8168718772        7.6284409469       -7.3029162421
 Si        -8.1560845950       -3.7579556918       -4.5911427064
 Si         5.4087306330        3.7027561817        7.7815229380
 Si         4.3008205234       -7.0006074537       -3.7346565691
 Si         6.9031323385        1.2359241919        7.2545020598
 Si        -8.7281157199        3.3751411743       -2.6660586702
 Si         8.9553889252       -4.3848917417        7.0218524950
 Si        -6.7725754324       -6.4634820792       -1.4679071064
 Si        -2.3538164884       -3.6003620730       -7.6799710426
 Si        -6.5665505225        5.7018895671       -1.9661746021
 Si         9.3195790033        2.8678109056       10.6515471164
 Si        -8.2585104691       -8.6742907744        8.8946562125
 Si        -2.8297550617        8.6175872178        9.1534821390
 Si         0.3785205685       -4.0805490005       10.2079212138
 Si         8.5690938346       -2.4317646890        4.4785185585
 Si        -5.1900619375        1.2533722641        7.1342459439
 Si        -7.0279251965       -9.0647445969        0.0795272689
 Si         2.8530057999       -5.5832447609       -7.7931192098
 Si        -6.0794084685        8.6661783759        9.3951693281
 Si        -8.3908504510       -2.1048923163       -2.2117861622
 Si         5.4247835766        7.5248167001       -5.7724928480
 Si        -8.2539055493       -7.9047458831       -3.5463617897
 Si        -7.5672258782        7.4077165135        3.2148388542
 Si        -5.2644712536        7.1377409575        5.3452782341
 Si         0.3667391633        7.1861200440       -3.5100949866
 Si         6.1760688761       -8.3578826125       -1.9447319908
 Si         7.8125259447        5.2462766672        9.2639320445
 Si         9.0293825705       -5.9742271303       -4.6691988941
 Si         7.2678774885       -4.9251057935        9.5005125332
 Si        -2.1463555417        8.7900424493       -4.3195830905
 Si        -4.7228890906       -9.1415617371        5.5184975110
 Si        -0.6397183454       -9.3860237949       11.1382290470
 Si        -7.0069137859        2.5606989768       -8.2805924276
 Si         1.9199336709       -7.4709401577       -5.3751203310
 Si        -6.2270234234        7.6887066688       -7.2083867390
 Si         9.1738042746        5.0269962784       -4.2845476194
 Si        -7.6254915120        3.4131101533        6.9274189946
 Si        -0.8854518074       -6.8565192216        9.1576794000
 Si         9.0163920261        0.3486523207        5.6171591078
 Si         9.3031311634       -8.5552702134        0.8841378513
 Si        -5.0891070159        9.2963659793       -4.6430281598
 Si         0.2233852443        4.2165086978        9.2624488064
 Si        -2.6006892043        5.4516020191        8.5685517978
 Si         6.6735755744        2.6379092101       -7.4919129646
 Si         5.8652224343       -7.6767922995       -6.3686079432
 Si         2.7690431768        1.7914010968       -6.8592675411
 Si        -1.0887491699       -8.0443028595       -5.4235660330
 Si        -5.6604039496        2.1769154439       -5.4483385451
 Si         6.9039746595        6.4255213752       -1.3975695645
 Si         8.3409561487       -7.5096950242        3.7181852480
 Si         6.9010607902        7.7693147780       10.8043315773
 Si        -6.0672441125       -5.0635761769       -6.6079879255
 Si        -9.2210631803       -1.1441611661       -6.0679901811
 Si         0.7743964778       -8.6540953151        7.1283092353
 Si         8.2176672906       -3.3338204433       -1.4583479774
 Si        -4.3541956309        3.0195013843        9.6107401147
 Si         4.3101804484       -0.8067225308       -7.7259940527
 Si         0.5741029614        6.2402566863       -6.2851335868
 Si        -7.2187645842       -4.2611922371        7.7726240323
 Si        -2.2650965481        6.4223751508        5.7538697388
 Si         4.9681200486        8.3455049462        5.5202144606
 Si        -3.8934326078       -7.3407173990       -6.2391693203
 Si         7.2771418146       -9.7650697429       -4.5260578074
 Si         1.8912446841        9.0592882668        9.6430587224
 Si         6.8284805369        8.8713088062        0.1553632917
 Si         7.0644313377       -1.5770967091       -7.0730095061
 Si         0.0648435112        3.1234944040       -7.2988402491
 Si        -9.5976623575       -4.8407800245        3.0146340467
 Si        -3.5955838330       -6.3410382150       10.3338076712
 Si        -7.8801413550        0.5899998504       -3.9494676157
 Si        -7.8284605765        5.8378308581        0.4832947718
 Si        -6.5199056372       -9.1407075501        2.9739153398
 Si         6.3988884479        7.3076637543        2.8366315049
 Si        -1.9204204008        9.4706321001        6.5087669617
 Si         8.2080892617        3.5859477210       -0.4492245946
 Si         5.6015257218       -6.9821791500        5.0818715713
 Si         9.2535807760       -9.5469670973       11.1458671564
 Si        -9.9176750395        1.6073608163        8.1008470508
 Si        -9.3499215976        3.2661010427        4.4345168741
 Si        -6.1307907922       -1.5424012467        8.5016625967
 Si         9.3108068583        7.1145034197        7.2258782359
 Si         6.6012989273       -5.5725529213       -2.8110404685
 Si         9.7636477204        7.0283671069       -1.7771586066
 Si        -8.9559629814        3.0265875875        1.3477105017
 Si         2.6788049210        6.0370155483        9.4194868694
 Se        -2.4874195421       -2.0697816027        3.6766474118
 Se        -1.8486709167       -4.1497420948       -5.4507605004
 Se        -4.8132999826       -5.2359792128       -1.3773051428
 Se        -1.8621301545       -6.2931693043        2.3433349158
 Se         1.1859328711       -6.0169774270       -0.7147000885
 Se         1.6020179858       -8.7115669290        3.1421381695
 Se        -6.1974404995       -2.2476850303        2.2077436862
 Se        -4.0719631097       -1.2107935083       -4.4156516278
 Se        -4.8266642071        0.9253974287        0.0858800551
 Se        -2.0786051953       -0.7396113676        8.3967390622
 Se         4.0078759956       -1.8211589354       -1.0440682528
 Se        -2.2610842923       -2.7743855321       -0.7691390332
 Se         1.2514930383       -2.5405967879        1.4191066666
 Se         0.7117654795       -4.4700866826        5.5316167959
 Se         5.0375869446       -5.7319664869        0.8181209185
 Se         5.6870620390       -4.7185907211        5.0878896678
 Se        -2.2468563699        3.8610347536       -1.9313439829
 Se        -4.1246069409        3.9851827951        2.5616809747
 Se        -1.0676967915        1.7825979295        4.5862923891
 Se         0.0445649889       -0.1088634668       -2.8996304146
 Se        -0.8782816093        1.2029233043        0.9202460751
 Se         0.7559499452        4.5593584674        2.1370643495
 Se         1.0519127609        3.1057725156        7.5799487846
 Se         4.9700578993        0.1868385566       -3.7692929667
 Se         3.6516081449        1.4329308503        2.3766979076
 Se         1.5279053771       -0.4776973576        5.5545779383
 Se         3.5109522667       -1.4183011858        6.3771149342
 Se         7.6653854005       -2.0600981686        0.2501678837
 Se        -2.1282284546        7.6287690313        1.1157660191
 Se         2.8421407933        7.9576252981        1.1863823474
 Se         2.6628234802        3.6430532072       -1.6347266318
 Se         5.3796381863        5.3153217159        2.5151672381
 Se         6.5399053073        2.2952316545       -1.0016751231
 Cd        -6.1937815941       -3.5129911148       -0.0115008776
 Cd        -3.9954807630       -3.7064682033       -3.4797180564
 Cd        -2.9315875446       -4.6753076212        4.1073047463
 Cd        -3.1587953448       -1.0670457345        6.0061588377
 Cd         3.2718814696       -4.3926024936       -0.6363263899
 Cd        -0.4662745082       -4.5205899445        0.7286778954
 Cd        -7.4476932757       -0.1948115302        0.8724551981
 Cd         1.1033965433        1.8842121562        2.4289022647
 Cd        -3.8692386673       -1.6269617891        1.0947579061
 Cd        -0.8921997845        1.3710998153        7.2040269425
 Cd        -1.3360143358       -1.6814373906       -4.3418458456
 Cd         5.1518111816       -1.1824394850        4.2448126594
 Cd         0.2677168117       -6.3647785406        3.8844500563
 Cd         3.2532602540       -4.1691484851        5.7929424428
 Cd         3.7425702716       -1.3083674076        1.5230505864
 Cd         2.6314347863       -6.9679895282        1.2493721073
 Cd        -1.5498103066        6.1104123782       -1.0823990588
 Cd        -3.0145855340        2.9299206212        0.5042556214
 Cd        -3.7329274347        2.1834226430        4.3261456985
 Cd        -4.4568276262       -0.1333419237       -2.2298445927
 Cd         0.1496930639        2.5881320965       -1.2556739075
 Cd        -0.4304772767       -1.1117217903       -0.2029333178
 Cd         0.1603007690       -1.9404893721        7.5556275532
 Cd         2.5993572701       -0.1841974975       -2.7478659858
 Cd         6.2704976159       -0.3956831259       -1.3009282059
 Cd         0.3616715087        4.1789417957        5.1752828187
 Cd         5.5889768886       -3.4626271036        2.1232640950
 Cd         0.3371911181       -2.3060763539        3.8856737308
 Cd         2.2163773174        6.0459131760       -0.5181746118
 Cd         0.3504297707        8.3621848467        1.3284115391
 Cd         2.9552484193        5.7558761385        3.1846826989
 Cd        -1.7559555390        5.3956017152        2.5703262745
 Cd         4.2822003123        2.9156662316        0.4278153239
