402
 i =     8000, time =    16000.000, E =     -5882.3541368709
  O         6.6260123005        2.5255467093       10.4355456298
  O        -5.4217180907       -2.8952962441       -7.6826921886
  O         8.9996374564       -5.2745184209        6.4748895813
  O        -7.8081899645        8.2023924181        1.3688898671
  O         1.5496208831        9.3264463181       -4.2099955302
  O         8.1993248034        7.7408281414        2.9086419707
  O        -5.9224870749        8.0352428264        3.2586215142
  O         5.1902631955        6.9725341307       -5.3302690159
  O        -7.9938342896       -4.7146895724       -1.0801497484
  O         8.8165088948       -2.6273730552        5.7318751187
  O         9.3494815320       -1.6664676686       -2.5899261936
  O        -3.2053889573       -1.5713765200       -8.0087040461
  O         8.5088447240       -0.3015990032       -6.6238064974
  O        -4.9594289489       -5.3876278081        9.6646527071
  O        -7.2891482602       -0.5157758027        9.2908518529
  O        -6.5027714685        6.8770891182       -0.5499595666
  O        -0.1158255858       -6.3664641061        7.5525180979
  O        -6.3519553694        1.8136919431       -4.8231814986
  O        -1.6688825019        8.6040512211        5.8633710687
  O         8.4798311138       -4.3186692339       10.7068766263
  O        -7.9648516949       -5.9325314930        5.2396251786
  O         6.7716369073       -6.5216759104        3.7719870821
  O        -8.5163832551        0.1051750135       -7.7883553729
  O         3.9105930959       -8.9141942562        5.2309974339
  O        -7.7828406492       -2.4134172916       -3.4462859067
  O        -8.6733729342        7.8941511546        3.7760121493
  O        -3.2452126908        7.6498722245       -7.7602157276
  O        -6.9647228057        1.8303975745       10.3809766447
  O        -5.0668376746       -6.9366363345        5.9509307479
  O        -8.7847924769       -7.3416449855        7.1494873810
  O         0.6804054819        7.5983384399       -2.2692374909
  O         3.5253285118        3.3019752757       -5.7507101063
  O        -7.1627713285       -6.6828942140        2.8694754670
  O        -3.6813566379       -6.6313336119       -7.8669626034
  O         6.9055756409       -8.2338986092       -3.4510756079
  O        -6.9304566123       -3.8494699852        9.1280583138
  O         8.9920734143        6.9174474662        8.1192494803
  O        -3.9548781067        2.7147057163       -6.0758415693
  O         4.8416622900       -4.8120912551       -3.4601487522
  O        -7.0330394995        6.4378842336       -5.2747531541
  O        -5.7647581167        3.9781673145        9.9722342043
  O        -2.0734389064       10.2879988109        8.0166036048
  O         5.7228499406        3.2705655938        6.8066859411
  O         4.5639536649        4.3940859163        8.7601712059
  O         9.4984595209        2.4126291296        9.5803423602
  O        -2.4809932294       -5.6502723010        8.9502678545
  O        -7.8169139863        7.9334799964       -7.2397812945
  O         4.8489630621        0.6538146808        9.9707268076
  O         6.3115767908        8.9734069375        9.1358710281
  O        -0.1724353085        4.6087875362       10.3967904293
  O         6.1588368989       -6.2078192820        6.4993304127
  O         4.6824796729       -6.4704698759       -5.6171803465
  O        -3.3169240552        5.2129217968       -7.2789444536
  O         2.6419650102        8.7249449723        9.5713451758
  O         8.3706032615        3.5770082678       -7.5846312316
  O         0.7292351081        5.6204260628       -6.7819064440
  O        -8.5552656688       -1.3515702645       -5.7329273832
  O         9.6185035766        2.6961637333        4.6358391564
  O        -4.9851367681       -4.9865666702       -6.1020110644
  O         4.6269776883       -7.2964856263       -2.9435191674
  O        -8.5670133810        8.9269688728       -5.0415247361
  O        -2.0227202433        9.7910081142       10.6418202919
  O        -6.1666800422        7.8548080527        8.2523537970
  O         3.3233419798       -5.6212753487       10.3578259970
  O        -7.8429104090       -1.0847984624       -1.0273387875
  O        -6.0077309471       -4.5974783878        6.8104268645
  O         0.2051831603       -6.2469277042       -5.1777847571
  O        -7.1993366711       -3.6441676042       -5.7564321703
  O         6.7651408154        1.0827469827        8.1470420279
  O        -9.0021673837        1.2634835072       -5.3617447886
  O         4.3744126364       -4.0384778289       -7.3738546114
  O        -9.3442264046       -4.1044525329        1.0572943079
  O        -8.0562911500        5.6091167991        1.0654156508
  O         4.7955572765        5.5142185812        6.1737604214
  O        -6.8029566431       -9.3033438003       -1.0980782162
  O        -6.7906229785       -8.8144261424        8.2716175966
  O         4.1490184950        7.9288462490        5.4958489818
  O         6.5936880307       -2.2055986618       -7.1832649963
  O         3.5264283745        3.6509521496       -8.4718270227
  O        -1.0990172255        5.6788451137        8.2388863130
  O         7.0220825004       -5.4549424214        8.9802099932
  O        -5.4440842176        0.5800092960        7.6109821389
  O         9.7207784635        4.4358398742       -4.3088055463
  O        -5.6482261953       -5.0135329257        4.2507928877
  O        -7.4059028749       -9.2556984206        3.1326889721
  O         7.4571490118        1.4770294170        5.7446904846
  O         9.6797172780       -2.4046387421        3.1959548802
  O        -0.6467970294        7.8058925141       -7.3983810269
  O         7.1417052656       -7.9937777052        8.1577297737
  O        -7.6454550304        5.1860807858       -2.4282235427
  O         8.9070795778       -3.9155655870       -1.1479253560
  O         5.9775332994        6.7368521844       -2.7147466713
  O         9.0961850462       -5.5611681463       -6.3062309145
  O         6.0993702469       -3.1665961960        9.9342285047
  O         5.8497790788       -9.8105404191        6.6439317423
  O         9.0335299029        4.3546323880        0.8486310515
  O         8.2958060435       -3.3514888972        8.1866837057
  O        -4.7210067431       -1.2970113789        9.3648518145
  O         6.2367469310        3.0246794432       -6.2166203319
  O         6.6218080337        9.5339630314        1.5484749985
  O        -6.1944337083        9.2594715506       10.5194954535
  O         1.7079439969        8.4189212030       -6.7185276098
  O        -7.3583315786       -6.5407194622        9.2933623212
  O         7.2693896168       -1.2766362702        3.8380011145
  O         4.3144501121       -6.3144177459        4.7341716050
  O        -7.0631067825        5.5694463806        7.5095278611
  O        -8.1043506539        2.9168532570        0.2643873033
  O         4.8146572513       -6.8855807051        8.6265317518
  O         9.3535718731       -6.4112889495       -0.1780783041
  O         9.1671616926       -7.2506450767        4.7731581116
  O         6.7241757654       -6.0313923319       -2.0962103030
  O         6.9626683809       -3.2364812888       -2.4274801892
  O        -0.3304590514       -8.5492890914        6.0408790718
  O         9.8434556233        6.4298065257       -5.9222831527
  O         7.3710609287       -0.0805970782       10.4446663565
  O         0.7057428297       -9.1965814301       10.7325081353
  O        -2.5729328226       -6.1143548890       -5.5203661400
  O        -2.1851940250        9.4290869752       -6.0359327501
  O        -3.5754212571        5.2957811340        9.2199516389
  O        -6.8749855343       -5.7783868534       -3.4319233229
  O         7.4692510449        5.7894774274       -4.8994601358
  O         3.0544102634       -8.1949043886        9.9200073632
  O        -0.9599185320       -7.7919230890       -6.9893171371
  O         6.4361461669        9.2075287462       -4.9580545743
  O         6.1313090397        9.0449785967        4.1308872470
  O        -0.8657319561       -7.2689602247        9.9189520548
  O        -8.4769030140        8.0494781524        7.0383437477
  O        -0.7022432883       -2.5610875329       10.8714374655
  O        -8.4670925845       -8.1268565787        0.5016592461
  O        -5.4926838512        4.3685668746       -4.7232039408
  O         8.1581626618        3.2626466223        7.4901091337
  O        -5.3830494257        6.3045200381       -2.9759245690
  O        -0.0344801432       -4.8434332164        9.8412587731
  O         8.4227022778       -8.9935358513       -0.1104803149
  O         6.2206616959        8.3876574575       -0.5639617507
  O        -6.2988915825       10.1030407935       -3.9047226129
  O         8.9042014518        7.5706787295        5.4593930208
  O        -3.7426825647        7.6884366620        4.6526554847
  O        -3.9606464173        1.9107191999        5.7922254432
  O        -5.6077662223        9.1944700374       -6.3601886723
  O         8.8788079719       -8.8327605125       -5.0946272972
  O         7.5733164797        7.1089226539       10.4047122326
  O         1.8713657257       -8.2327178033       -5.9461765104
  O        -7.3186961056        8.0625432311       -2.5560315099
  O        -5.7841376715       -0.3599487095       -7.8730355029
  O         2.0730205721       -7.1801034353        6.1250545754
  O         6.7016269661       -5.5687774973       -7.2776809972
  O        -8.3684217275        2.6629955647       -3.1019214148
  O        -5.0020096163       -8.0374650557        3.5475140954
  O         9.0021864615       -5.2092896912        3.1061745576
  O         3.8868435042        9.4171401969       -5.6517976750
  O        -8.1400804075       -7.6845697048       -5.2313595520
  O         3.4570621929        1.2112602905       -7.2613969955
  O         6.6428363918        5.6073691266        8.1161232109
  O         5.8397622069        0.3352010699       -6.8659314872
  O         2.1496619345       -5.6030822566       -6.6854645442
  O        10.1746766363        9.4724148925       -2.4698477888
  O        -8.4904526567        3.7398522742        2.7254380217
  O         5.0205012049       -7.3944958213       11.3512484767
  O        -6.3423337767        3.4050275836       -6.8704427411
  O         5.7983111859        8.5646893591       -7.5109466027
  O        -9.1318844641       -8.5823034458        9.4479387999
  O         4.2152845953       -1.4920025726       11.3645502627
  O        -7.8337086512       -4.1124098537        3.1353208190
  O        -3.7530094293        9.7805095739       -4.2209946449
  O         3.7493625467        6.3101659399       10.1610104164
  O        -6.2875061696       -2.0295488004        7.3718874762
  O        -5.3901093927        9.6174620694        5.5174412407
  O         7.5365387421        5.9811023912       -0.6511327309
  O        -6.0631447092        3.1301880968        6.6986722246
  O         0.2343289670        7.1224194803       -4.8278598966
  O         5.8213428928        4.8392607914       -8.1576737610
  O         5.1643442805        4.5834164589       -4.3874619687
  O         9.3036684623        4.2519859727       -1.7316239584
  O        -3.1496824560        6.4841482914        6.8354422228
  O        -1.4232901234       -8.1768502595       -4.3718063096
  O         1.0632771224       -2.4616453222        8.8501134436
  O         1.8611708726       -3.4977472477       11.1579399459
  O         8.2015413149        9.6549381977       10.8142506716
  O        -1.3173832537        3.6178383159       -6.8056553078
  O        -8.9770054056       -8.8699095858       -7.3553353720
  O        -3.0877076647       -8.5280150350        5.5855711470
  O        -8.0041012185        0.1747215000       -3.2864399390
  O         9.1563440228        5.4574460898        4.0159953915
  O        -4.3251654102        9.6633694009        8.9718965436
  O        -3.2044468733        2.9792169684       -8.5368600866
  O        -1.5984240035        6.1243303876        4.8100337903
  O         1.2061219448        3.0425197974       -7.2217178357
  O         8.4848786416        9.3582268113        7.2951421746
  O        -2.9611090349       -4.1411051474       11.0066040507
  O         1.1956160469        6.5456725809        9.3871654716
  O        -6.9167872251       -5.0545596115       -7.9560059698
  O        -8.5650640497       -3.6358996951        7.2285977727
  O        -6.1314485200        7.1822433182        5.7940875701
  O        -3.5272556379       -4.8094555134        5.8355505537
  O        -3.9814000058        2.8273868759        8.2498610520
  O        -8.3821239002        4.0022503875       10.9780605953
  O         7.3722925986       -4.9551559515       -4.3758209148
  O         8.6060863616       -7.1526291980       11.0890277926
  O         8.9043663888        4.9229556815        9.6865014772
  O        -5.9589763941       -8.3140008065        1.1350113001
  O        -8.5316486867        3.5774321231        7.6790751868
  O         6.0103674573       -8.3551529049       -0.8251389248
  O         6.7775977269       -7.8923156777       -6.0352364729
  O         8.5966816328       -7.5876703103        2.0858143241
  O         2.3660275240        6.0571862822        5.1748823567
  O        -9.5156035621       -6.0606042040       -3.8238489054
  O        -6.4029100502       -6.7501601316       -0.8350608536
  O         9.7305602654        6.8163798176       -3.4022206389
  O        -9.5461101576        1.3506125804        6.9421229554
  O         2.5588419704       -6.2815474232       -4.0896090792
  O        -9.7081555608       -3.5441882671       -4.7172764324
  O         9.3692242904       -0.0592399036        4.6724032969
  O        -5.6179811863        6.8605625315       -7.7260557636
  O        -2.4675988335        7.7489567463        9.0890401122
  O        10.1377568653        7.3207439969       -0.7198997509
  O         1.1040715172       -8.7166708076        8.1920113453
  O        -7.9962745232       -7.9083041765       -2.7362626235
  O        -7.9834747720        4.3794013947        5.3197440412
  O        -1.2126511004        8.7913114297       -3.5506856693
  O        -4.8696444793       -7.7181151016       -5.7074991365
  O        -4.3521101089        6.6595930231       -5.4171530906
  O         8.1431748836        8.1683078248       -2.0621435061
  O         3.1084722958        7.0192724610        7.6778452284
 Si         3.2077810048       -7.5479019525        4.8736174090
 Si        -6.5447369385       -5.2644286934        9.9021656585
 Si        -4.1713695778        6.5626433874       -7.0425298476
 Si         6.3842560889        1.1057776480        9.7100684004
 Si        -9.4771060700       -4.9103499769       -0.2971937295
 Si        -9.3076316206       -6.4651908293        5.9165401000
 Si         9.2445851843        7.1209382961        3.9840391723
 Si        -8.2728133259        7.4002760996       -5.7898829392
 Si         4.0917630896       -6.9856880677       10.0300910713
 Si        -2.9269065794        3.6511265208       -6.9998774223
 Si        -8.9728776431       -9.0013795846       -5.6854305182
 Si         5.9396471994        6.0662045698       -4.2355670834
 Si         3.5112548009        6.6045487601        6.1171256012
 Si        -7.1647313695        0.2786671751       10.7568007636
 Si         8.2919033472       -5.6196370507       -7.6834653971
 Si         6.3237431878       -6.6018846019        8.1095097980
 Si        -7.4580253627        9.8766411785       -2.6374482298
 Si        -5.0117515566       -5.3231781315        5.7239368914
 Si         4.4671604190        4.8652826501       10.3286806593
 Si        -4.7864446184       -1.5539914650       10.9794722292
 Si        -7.0628547800        7.1657559907        7.1204124732
 Si         2.2445802706        9.5895310478       -5.7129053301
 Si        -5.6380148601        5.9501758873       -4.5444942755
 Si         5.2932160718       -2.7783567008       -8.0347553999
 Si         6.9970035058       -9.6072269759        7.8100185691
 Si        -7.2012683327       -5.4233436191        3.8797184909
 Si         4.9767710884        3.1795979521       -5.1435765134
 Si        -2.0491883854        8.6006628535       -7.3571986680
 Si        -8.3554176289       -2.7670043451       -4.9036877774
 Si         5.4704046301        4.7528108757        7.4500639939
 Si         4.2325838153       -6.1660323782       -4.0661294971
 Si         6.9526363722        2.2956483999        7.0269616728
 Si        -8.9457328291        4.1511384911       -2.8657803734
 Si         9.1925566217       -3.6701650296        6.8771467725
 Si        -6.7361477195       -5.4466504017       -1.7124621026
 Si        -2.1814140929       -2.8277035183       -7.7318884759
 Si        -6.7527555949        6.5917308560       -2.1079603862
 Si         9.3849292911        3.7214872469       10.5642490693
 Si        -7.9963020917       -7.7796111694        8.4948947366
 Si        -2.7989738765        9.2641191524        9.0401131952
 Si         0.5929837157       -3.3381181659       10.0832554883
 Si         8.7339350326       -1.6030517364        4.4066065661
 Si        -4.9081792132        2.0815807092        7.1166040662
 Si        -7.0031614415       -8.0974028095       -0.1206951441
 Si         2.8901403631       -4.6978143503       -7.7962557651
 Si        -5.9623656963        9.3163708695        8.9240804845
 Si        -8.4583534912       -1.1844724630       -2.4920620150
 Si         5.3198730033        8.5177420621       -5.8945035935
 Si        -8.0912081966       -6.7965088129       -3.8598412357
 Si        -7.4704355794        8.4847416153        2.9336808997
 Si        -5.3674044771        8.1066373813        4.7582862196
 Si         0.3821592582        8.2736317857       -3.6713237225
 Si         6.1853786532       -7.5562170840       -2.2488589603
 Si         7.9583213999        6.1233517043        9.0924397275
 Si         8.9765047219       -5.0258471676       -4.7528449046
 Si         7.4361429350       -3.9479586311        9.4511084406
 Si        -2.1344390216        9.7652713278       -4.4254343046
 Si        -4.6545138430       -8.3294240513        5.1171278275
 Si        -0.6859568909       -8.4556975794       10.9424805821
 Si        -6.9174515830        3.2913777948       -8.4173158621
 Si         1.7578720241       -6.6332045629       -5.4718733506
 Si        -6.3005750498        8.3232813694       -7.6160588559
 Si         9.0747327996        5.8706357176       -4.6049275153
 Si        -7.3342527838        4.1380275670        6.7805198626
 Si        -0.8166144176       -5.9484444272        8.9156128922
 Si         9.0933333003        1.3296981240        5.4494367835
 Si         9.3050653098       -7.8454808510        0.6220718881
 Si        -5.2148910577       10.1309013581       -5.0504890191
 Si         0.2844028179        5.2476438629        8.9989881613
 Si        -2.6108123968        6.2736748793        8.3489143057
 Si         6.7350032528        3.5007624488       -7.6361839351
 Si         5.8052321239       -6.8257087796       -6.7368870917
 Si         2.9200974342        2.7804389564       -7.2319920467
 Si        -1.2398761004       -7.0476277220       -5.5506260296
 Si        -5.5221924475        3.0223278189       -5.6032819082
 Si         6.9758237736        7.2556152415       -1.4805870418
 Si         8.4219991651       -6.6605081941        3.4560730797
 Si         6.9295088953        8.6106839103       10.6494660675
 Si        -6.1258289521       -4.0953110127       -6.8813587579
 Si        -9.2755459126       -0.0686761055       -6.3479438518
 Si         0.7074746210       -7.6843397490        6.9732550202
 Si         8.3062772824       -2.5486392767       -1.6729047835
 Si        -4.0877437946        3.7905848541        9.6057604795
 Si         4.5340678738        0.1144498581       -7.8644068214
 Si         0.5519389354        7.2300564088       -6.4272060460
 Si        -6.9289845780       -3.5368649943        7.5277296999
 Si        -2.4764613615        7.1848527874        5.5281196550
 Si         5.0058586247        9.3106942322        5.3400673658
 Si        -4.0163653156       -6.3621955953       -6.2840934182
 Si         7.3369993367       -8.7950534158       -4.8794440712
 Si         1.8979585454       10.1460421920        9.5998820573
 Si         6.8567265770        9.8117012900       -0.0346422447
 Si         7.0912752074       -0.6141261456       -7.3899661129
 Si         0.1053831021        4.1986540655       -7.3833483648
 Si        -9.4044516783       -3.9263321696        2.6404979147
 Si        -3.4558480990       -5.5075530071       10.2593962268
 Si        -7.8599731015        1.5311694757       -4.1910422564
 Si        -7.9078103682        7.0331737496        0.2500163531
 Si        -6.3830273971       -8.0740697723        2.6748987567
 Si         6.6738892303        8.3267127366        2.7147790966
 Si        -1.8028105820       10.1562821214        6.3052493898
 Si         8.2686397328        4.5534322604       -0.5324220812
 Si         5.8424037079       -5.8070395890        4.9556588385
 Si         9.3579883438       -8.6006876783       10.8163742260
 Si        -9.8210782105        2.6364149316        7.9517234909
 Si        -9.1469267109        4.1447379589        4.2028181380
 Si        -5.9630145691       -0.7545970787        8.3703893222
 Si         9.2706061823        7.9870233930        6.9674431146
 Si         6.5027428547       -4.7193600508       -3.0203995496
 Si         9.7406691060        7.9371905528       -2.2233843802
 Si        -8.6657419385        4.1058289617        1.1320688251
 Si         2.6981688302        7.1664739992        9.2219982491
 Se        -2.7900144867       -1.4858969896        3.8738991999
 Se        -1.6486641672       -3.1640011815       -5.5546756262
 Se        -4.9367617194       -4.1486648410       -1.4701312507
 Se        -1.8033498562       -5.4390210138        1.9111150620
 Se         1.2842193212       -4.9022897528       -0.7411692467
 Se         1.9403775456       -7.5944819741        3.0165774264
 Se        -6.2417396128       -0.9627771033        2.2031917606
 Se        -4.0935330435       -0.3591694969       -4.6062509166
 Se        -4.6274188784        1.4018649671        0.0472382066
 Se        -1.6586726138        0.0954224366        8.2211629269
 Se         3.7311878920       -0.7173699711       -1.1207085584
 Se        -2.3421285649       -1.7453085475       -0.4027391262
 Se         1.1234808302       -1.1066231377        1.3638801510
 Se         0.7257723269       -3.5338730087        4.7508663588
 Se         5.1228039278       -4.6775814735        0.4701981739
 Se         5.8138421774       -3.6001879394        4.8036670040
 Se        -1.9331803978        5.1337078748       -2.0543884159
 Se        -4.0126190711        4.8331867536        2.3381229390
 Se        -0.5217242031        2.3029765162        4.5241535140
 Se        -0.0583256405        1.1399968195       -3.1799675309
 Se        -0.6705047078        2.2223473505        0.6964310807
 Se         0.7615357752        5.8596145770        1.9441715656
 Se         1.4846691318        3.9805882163        7.7621651583
 Se         4.9006049938        1.2257242366       -3.8965483215
 Se         3.6873844140        2.5148500876        2.3515578220
 Se         1.5554483375        0.1645752901        5.6190725456
 Se         3.7694105897       -0.6813388819        6.1464333804
 Se         7.8273218200       -1.2712116804        0.1103150234
 Se        -2.0599528267        8.7361687732        1.0771480931
 Se         2.9201695139        8.9044946159        0.6455237446
 Se         2.8479501254        4.3851650246       -1.9361223803
 Se         5.7193199792        6.2653173052        2.5702790656
 Se         6.5960542342        3.0890801986       -1.1538693856
 Cd        -6.4389653106       -2.3381351940        0.0816247395
 Cd        -4.2677072825       -2.9302324651       -3.8852373936
 Cd        -2.9784773283       -4.0894241000        3.8262495920
 Cd        -2.9860421662       -0.0444938109        6.0291744148
 Cd         3.4577159653       -3.2998646420       -1.0243231472
 Cd        -0.4858303393       -3.3144755156        0.4933708664
 Cd        -7.2825866156        0.9900431560        0.7388790950
 Cd         1.1542749564        3.0283033320        2.3851892489
 Cd        -3.6502400325       -0.5577954058        1.5661485635
 Cd        -0.1816379195        1.9674548528        7.1671604895
 Cd        -1.3985638007       -0.7233448071       -4.5237538343
 Cd         5.3455740720       -0.3493169440        3.9226724898
 Cd         0.3671792188       -5.4379456897        3.1237767258
 Cd         3.3807236126       -3.2817374403        5.5104635911
 Cd         3.7173540729       -0.1340816158        1.5666217599
 Cd         2.9928031024       -5.8223197841        1.2095829841
 Cd        -1.4865466077        7.4225626086       -1.0798191406
 Cd        -2.9798776816        3.8776757069        0.0744565505
 Cd        -2.9326061303        3.2117244735        4.1546892325
 Cd        -4.2961784835        0.4311776482       -2.2376170121
 Cd         0.3269348631        3.8826913137       -1.1685872360
 Cd        -0.2772718353       -0.0309734242       -0.5942514067
 Cd         0.1085760668       -1.5748976048        7.0965837286
 Cd         2.5173443594        0.9120754502       -3.0143610860
 Cd         6.3933160769        0.2987849249       -1.3823162656
 Cd         0.4584301065        5.2006924195        5.2412784463
 Cd         5.4285611607       -2.4102567617        1.7566919177
 Cd         0.0596743682       -1.1727334739        3.6999446740
 Cd         2.5692384516        6.8273616310       -0.9557741504
 Cd         0.5334705539        9.0368896819        1.0879979417
 Cd         3.0664208502        6.6527414293        2.6692639617
 Cd        -1.8094054452        6.4379987778        2.3940932568
 Cd         4.4431318259        3.6899726091        0.1402563682
