402
 i =     9500, time =    19000.000, E =     -5882.4483490714
  O         6.4810964582        2.9285424983       10.1954863197
  O        -5.4234753440       -2.4084190725       -8.0177161815
  O         9.2252652756       -4.4474833375        6.1978200158
  O        -7.5570611233        8.6433337408        0.8670387793
  O         1.5972168994        9.4636625853       -4.5197583359
  O         8.0145083613        8.3992565000        2.5733453099
  O        -6.0521783547        8.5842604944        3.2051412008
  O         5.1682427558        7.5749256734       -5.7973552219
  O        -7.9625783941       -3.9520444037       -1.2885111057
  O         8.7682336896       -1.9412562520        5.4474541133
  O         9.2927089744       -0.9956971487       -2.9574883996
  O        -3.2248056826       -1.0209592579       -8.3643826451
  O         8.5069572428        0.3657721362       -7.0251894535
  O        -5.0136924337       -4.8275018543        9.3661946563
  O        -7.2633907449       -0.0201432548        8.9332394277
  O        -6.3141139036        7.1172504958       -0.9203904393
  O        -0.0124566775       -5.9477456440        7.2310243323
  O        -6.3147768513        2.3702985590       -4.9543613231
  O        -1.6771046781        9.0797839280        5.6748813894
  O         8.4700218101       -3.9965728521       10.2224163196
  O        -8.1638363882       -5.2792417481        4.7247819206
  O         6.7253481940       -5.9152620108        3.3435088025
  O        -8.4840818713        0.6989359211       -8.1045276219
  O         3.7986114894       -8.4210668244        4.5718714234
  O        -7.7302507447       -1.7897067043       -3.6376629592
  O        -8.7209403728        7.9372637125        3.1365063623
  O        -3.1626040550        8.2508688871       -7.8287812105
  O        -6.9399594096        2.3293106596       10.0085569295
  O        -5.1103605883       -6.4278409252        5.5993971854
  O        -8.7356162793       -6.6052885059        6.8333370253
  O         0.5772040459        7.8941160811       -2.5081410569
  O         3.4357459108        4.0641965412       -6.1830697701
  O        -7.2606136538       -6.3670321397        2.4771343270
  O        -3.6967226148       -6.1437842608       -8.2783931052
  O         6.9634116235       -7.5644873074       -3.6068260940
  O        -7.2007607118       -3.4583336674        8.7033472032
  O         8.8462744857        7.0930549651        7.3483922525
  O        -4.0815182379        3.2979707306       -6.4815500196
  O         4.9462982318       -4.0426212276       -3.5865718157
  O        -7.0485258312        7.1937650661       -5.6609762529
  O        -5.9110595033        4.7510281808        9.7353992180
  O        -1.7474093195       10.6592046027        7.6529511849
  O         5.7100579314        3.6224797908        6.5122773774
  O         4.4052463976        4.7386634207        8.4150602126
  O         9.3037917779        2.8687845025        9.2294349145
  O        -2.4468003350       -5.2142872540        8.7385636509
  O        -7.8115742276        8.5856246666       -7.7356881566
  O         4.6965181718        1.1207240630        9.5657311356
  O         6.2646829562        9.7052481291        8.7067678385
  O        -0.2844725222        4.6553533020       10.0681789105
  O         6.1047430252       -5.9709455123        5.9888419704
  O         4.8626957014       -5.6083329351       -5.6459294146
  O        -3.4720159205        5.6554292316       -7.5172743474
  O         2.3304201645        9.0866099965        9.1132795755
  O         8.3386428049        4.1389708596       -7.9987378728
  O         0.7356772628        5.8497029008       -7.1798274979
  O        -8.7502545354       -0.9333967377       -6.0017663069
  O         9.2760282197        3.1895258312        4.3575590167
  O        -4.9797421564       -4.5496434804       -6.4939766824
  O         4.5918560931       -6.6097255053       -3.1337309670
  O        -8.4245721017        9.6562139922       -5.5290345015
  O        -1.8636348986       10.0956185954       10.2506374058
  O        -6.2629132064        8.5512783575        8.0061158017
  O         3.0542743805       -5.1627501780        9.7642611577
  O        -7.9938123717       -0.5105501570       -1.2302740279
  O        -6.0294830949       -4.0680681866        6.4709690126
  O         0.2442225917       -5.8065497310       -5.5525378512
  O        -7.0804753410       -2.9380242524       -5.9919058892
  O         6.6492286841        1.6046282395        7.8889972067
  O        -8.8352052550        1.7460683746       -5.7123465436
  O         4.2978893155       -3.5062426822       -7.8589556410
  O        -9.4374351909       -3.1065308547        0.6614111123
  O        -7.9329045237        5.8680567944        0.6816058083
  O         4.5380491879        5.9287050560        5.9971928268
  O        -6.6326735960       -8.8140825311       -1.5584576413
  O        -6.8416208120       -8.2938725260        7.8468417436
  O         4.0475531474        8.5609136654        5.4673331179
  O         6.6233638734       -1.7147814123       -7.3656983546
  O         3.2030386655        4.2396331626       -8.8137161744
  O        -1.2227416691        6.0417022369        8.0548089856
  O         6.9415354607       -4.6900709318        8.0724615238
  O        -5.3984997950        1.0876685738        7.2003297426
  O         9.9328056609        5.2296929493       -4.8304139294
  O        -5.7413099028       -4.6563791558        3.7999671731
  O        -7.6096884189       -8.8334322540        2.8039165144
  O         7.2790682157        1.8210210868        5.3276550678
  O         9.7087099863       -1.8803063077        2.9383745825
  O        -0.6060731684        7.7863678958       -7.8696796893
  O         7.2742344401       -7.3013999055        7.8357442694
  O        -7.5219295246        5.9191580173       -3.0441070133
  O         8.9875540272       -3.3878287395       -1.7734052483
  O         5.9873474763        7.3151824437       -3.1360356675
  O         9.1849425445       -5.0500391007       -6.6560972934
  O         6.2479695357       -2.6735993078        9.7391147579
  O         5.9868494073       -8.9064445362        6.1713250810
  O         8.9426308392        4.8966487526        0.4549164350
  O         8.4642478344       -2.5923400847        7.9854717152
  O        -4.7938221999       -0.8555921397        9.0374674796
  O         6.0411378811        3.7454415431       -6.6737012751
  O         6.5218236024       10.2307009328        1.2896075886
  O        -5.9238040001        9.9241822144       10.2538619229
  O         1.6586799554        8.7211203615       -6.9709390758
  O        -7.5223030671       -6.1092055733        9.2525962489
  O         7.2980352654       -0.7507266768        3.5648795309
  O         4.1106142235       -5.8543163929        4.2251297775
  O        -7.3180636418        6.0516634756        7.1654466311
  O        -8.3023069769        3.3550773605       -0.0993269282
  O         4.9509690738       -6.3475906528        8.4864694427
  O         9.3020419364       -5.6277930873       -0.3635252755
  O         8.9941376693       -6.5026299706        4.5933368004
  O         6.7270459329       -5.3358990192       -2.3280248719
  O         6.9054597769       -2.5277928946       -2.7575799413
  O        -0.3371195406       -7.9304661874        5.5772140606
  O         9.7308380278        7.4183586300       -6.3662858798
  O         7.1442370574        0.3269241823       10.0984957296
  O         0.6859957938       -8.7922071183       10.3164408529
  O        -2.4725165861       -5.6608324717       -6.0827093854
  O        -1.5202197621        9.6508373282       -6.4543133064
  O        -3.8623097004        5.8514875591        8.7128869459
  O        -6.9943769668       -5.1690078657       -3.6892896776
  O         7.5453312358        6.4662464306       -5.1907870552
  O         3.2334099108       -7.9195856774        9.7037192395
  O        -0.9381816943       -7.5203694256       -7.2465595044
  O         6.3668782919        9.7458643427       -5.2483548422
  O         5.8672886001        9.6155374709        3.6992714292
  O        -0.6910674818       -6.7210131218        9.6108896182
  O        -8.4856524131        8.4991450662        6.5453622238
  O        -0.6913439770       -2.0057022448       10.6915044114
  O        -8.5751063553       -7.7187607427        0.0641466037
  O        -5.6886282691        5.0072554590       -5.1110158447
  O         8.2158872232        3.6184396863        6.9881102470
  O        -5.2260926539        6.9496787965       -3.4110700066
  O        -0.0406835270       -4.0919953048        9.1968643259
  O         8.2444635325       -8.1669966065       -0.3293596193
  O         6.1584314545        9.1178912289       -1.0193664311
  O        -6.1088021083       10.5928345690       -4.1672649667
  O         8.8605430215        8.2701796298        4.9819500766
  O        -3.7513801068        8.0431682069        4.2477004174
  O        -4.0191273195        2.5020366192        5.4399257111
  O        -5.5796179902        9.7997837838       -6.6690568655
  O         8.7699353957       -8.3412387748       -5.5479677606
  O         7.3857597883        7.6696383938        9.7006207190
  O         1.9906473096       -7.8040215154       -6.0703318478
  O        -7.2106409558        8.5226863803       -3.1293009858
  O        -5.8353207646        0.1494785255       -8.1815232582
  O         2.0050902203       -6.7578500254        5.6491713659
  O         6.7427370447       -5.0174305449       -7.5530808198
  O        -8.3379325493        3.3204485403       -3.5563308845
  O        -5.0778454666       -7.6489469071        3.3224384775
  O         8.8242279824       -4.4007216658        2.8921205116
  O         3.9133981430        9.8001173119       -6.2673203516
  O        -8.0251598722       -7.0068363551       -5.6641039571
  O         3.2205817836        1.6897644488       -7.7015529452
  O         6.6143601216        6.0219719960        7.7465532261
  O         5.7405447188        0.7237049537       -7.2759487895
  O         2.3852556259       -5.3068301441       -7.1276071624
  O        10.3521215136        9.9004973113       -2.5729311724
  O        -8.6477018687        4.1303045176        2.4165969789
  O         4.7478995689       -6.5745495321       11.2744924431
  O        -6.6009646193        3.8954467228       -7.2231279316
  O         5.9394975087        9.0560886208       -7.8474510323
  O        -9.2462872674       -8.0742358479        9.0455840317
  O         4.2554373106       -1.0289873029       10.9213754768
  O        -7.9419169025       -3.7391628146        2.6100467616
  O        -3.6144030329       10.0744669073       -4.9309401455
  O         3.5364051074        6.7508412453        9.6945816572
  O        -6.1287003075       -1.5049892122        6.9982107378
  O        -5.2249827410       10.0689761711        5.2796420831
  O         7.5115209615        6.6333648368       -1.0514740543
  O        -6.3081289245        3.6255090823        6.3386700204
  O         0.1898784733        7.4179312559       -5.2491405281
  O         5.7246759980        5.3661976410       -8.7165153524
  O         5.0887550718        5.3573673804       -4.6597265998
  O         9.4064015248        5.0007560190       -2.1896501724
  O        -3.1376033805        6.9163590491        6.3986360904
  O        -1.4449754451       -7.7310007145       -4.7380418802
  O         1.1808440922       -1.8047999097        8.7392635424
  O         1.6843592140       -3.2012556792       10.9490504426
  O         8.2095017173       10.1075663092       10.5198200162
  O        -1.4421612284        4.0188468441       -7.1066282687
  O        -9.0873574103       -8.2302834326       -7.6151746724
  O        -2.9449411317       -7.9088958402        5.2435403794
  O        -7.9626571176        0.7501494857       -3.4894003937
  O         9.2097036035        5.8333691160        3.7055004692
  O        -4.2118132645       10.4159950946        8.4746798657
  O        -3.5317013474        3.6365900784       -8.9971789412
  O        -1.3006302876        6.8533261235        4.4195174783
  O         1.1445371518        3.3130763204       -7.3686134645
  O         8.4740963282        9.7511353721        7.1371672589
  O        -2.8444741825       -3.6640495355       10.7790169639
  O         0.9884538774        6.8286851547        9.2781559734
  O        -6.9741649365       -4.5415912065       -8.2029315644
  O        -8.4008064785       -2.5106496102        6.6565987106
  O        -5.9462519921        7.5526675814        5.6502528100
  O        -3.5979003630       -4.1854097699        5.4491663922
  O        -4.4385314536        3.3586733372        7.9497836293
  O        -8.4435830460        4.4938681377       10.5018874494
  O         7.3955329859       -4.3481982332       -4.7263594361
  O         8.6225636976       -6.5844502289       10.6375562250
  O         8.8395387122        5.4485858662        9.1935966895
  O        -6.0342524435       -7.9540813908        0.8374849087
  O        -8.5463408277        3.8319207707        7.3391505104
  O         5.8353421118       -7.5844278361       -1.0340483868
  O         6.5281818969       -7.3782359617       -6.3847527824
  O         8.8605341844       -7.0402685281        1.9433632999
  O         2.4003751015        6.6433790878        4.5394986991
  O        -9.6534150121       -5.5747336474       -4.0818559147
  O        -6.8455815844       -6.1622302033       -0.9900031769
  O         9.7080714138        7.4724470322       -3.7927198971
  O        -9.6654688878        1.6103979831        6.5753625617
  O         2.6111188513       -5.5500909799       -4.4689765380
  O        -9.6321010968       -3.1833431124       -5.1006248801
  O         9.4487325145        0.4200180603        4.3375747339
  O        -5.5459771223        7.4039171404       -8.0872324164
  O        -2.7950104003        8.2112702222        8.6703102361
  O        10.4112847925        7.5933457379       -1.2219433268
  O         1.3159311274       -8.2077863883        7.7656179493
  O        -8.0449799530       -7.5547747966       -3.1472249361
  O        -8.1048977304        4.8409314040        4.8611005992
  O        -1.1376269143        9.2592507808       -3.9304534974
  O        -4.7514490912       -7.1797563887       -5.9856783164
  O        -4.2508007763        7.1525737889       -5.6832704601
  O         8.1014417798        8.8124706953       -2.4416529299
  O         2.6652629239        7.1261061231        7.2360582236
 Si         2.9887967885       -7.0646884363        4.4180745691
 Si        -6.6521970531       -4.7421908711        9.5781756908
 Si        -4.1601066603        7.0571931842       -7.2760856708
 Si         6.3298291958        1.5416271185        9.3885223206
 Si        -9.4326270960       -4.0774316405       -0.6528036364
 Si        -9.3974915786       -5.7773297535        5.6595854937
 Si         9.1536037018        7.5428998240        3.5620906277
 Si        -8.1629731528        8.1705468035       -6.2106158550
 Si         3.9898029591       -6.4944306536        9.8205936589
 Si        -3.0734706097        4.1278170607       -7.5128651457
 Si        -9.0130173670       -8.2845477402       -6.0448675938
 Si         6.0059911890        6.7717323340       -4.6492965957
 Si         3.4254874977        7.1061530946        5.7581024659
 Si        -7.1495284071        0.7358246010       10.4388638088
 Si         8.2315977962       -5.1901521797       -8.0317113392
 Si         6.2654203692       -6.0396563781        7.5867468592
 Si        -7.4314295768       10.2494260918       -2.9761992880
 Si        -5.0339518470       -4.7954139660        5.2993945512
 Si         4.2422914699        5.3358216723        9.9124133676
 Si        -4.8251593136       -1.0198827857       10.6593097991
 Si        -7.1142913978        7.6514668674        6.8816508659
 Si         2.2479131505        9.9566887592       -5.9204674318
 Si        -5.6145082651        6.5873132338       -4.9276022538
 Si         5.3480396582       -2.2248151044       -8.3343721138
 Si         7.0429287699       -8.8803227135        7.4344627353
 Si        -7.2919957468       -5.0158818626        3.4409002472
 Si         4.9178973552        3.9564840371       -5.4773114390
 Si        -1.7481931120        8.9252359730       -7.8204614284
 Si        -8.3420258360       -2.2352596015       -5.1414880384
 Si         5.3311988538        5.0817961999        7.1364937843
 Si         4.2324718939       -5.3955025413       -4.1818560138
 Si         6.9362381045        2.6371695794        6.6587633343
 Si        -8.8472041583        4.9120454711       -3.3446683132
 Si         9.4176449583       -2.8626845679        6.6102929674
 Si        -6.8047014359       -4.9740654938       -2.0659072328
 Si        -2.1309600873       -2.2828138672       -8.0038801199
 Si        -6.5848952266        7.1726778878       -2.5343040096
 Si         9.3805153995        4.2191183188       10.0729055815
 Si        -8.0774092341       -7.2740839042        8.2016656861
 Si        -2.7233671761        9.7820995704        8.6234329209
 Si         0.5436547900       -2.7369068854        9.8628245563
 Si         8.7856357491       -1.0741350700        4.0856527242
 Si        -5.0258717172        2.6694281717        6.6253646323
 Si        -7.0454520457       -7.7032705718       -0.4411247645
 Si         2.8948597767       -4.2607658865       -8.2639399485
 Si        -5.8718622113        9.9921387445        8.6212803339
 Si        -8.4984879902       -0.5901938541       -2.7750328130
 Si         5.3335912441        9.1276835789       -6.3409426045
 Si        -8.1331913629       -6.3459106617       -4.1449858610
 Si        -7.5508831772        8.9319169462        2.5286758655
 Si        -5.3082054343        8.5775662927        4.6182228559
 Si         0.3973160265        8.4646613891       -4.0015169925
 Si         6.1021680238       -6.8143532771       -2.4880065401
 Si         7.9189805780        6.6036593306        8.5634744944
 Si         9.0248823384       -4.5449681275       -5.1160143712
 Si         7.5019109952       -3.4604675163        9.0001429774
 Si        -2.0299586094       10.1408385759       -4.9236537753
 Si        -4.6250660151       -7.8149031037        4.8535703902
 Si        -0.6302538167       -7.9518804658       10.6016463077
 Si        -6.9367458547        3.8430496064       -8.8101579033
 Si         1.8336742150       -6.1442451443       -5.8249438964
 Si        -6.2135472898        8.9236799664       -7.8524609729
 Si         9.1364730631        6.6608173713       -5.0831394793
 Si        -7.5438717129        4.5925690815        6.3459330395
 Si        -0.8096616283       -5.4186503226        8.6458071619
 Si         8.9497821589        1.7353434236        5.0871155548
 Si         9.3055850298       -7.1071224652        0.3242169482
 Si        -5.0754504808       10.6573124604       -5.3226499845
 Si         0.1123703639        5.5489426101        8.7922724218
 Si        -2.7002618697        6.7062841846        7.9514120460
 Si         6.7010459915        4.0829503508       -8.1271578582
 Si         5.7003404198       -6.1494968456       -6.9036395763
 Si         2.7932447914        3.2907768265       -7.5189480109
 Si        -1.1529756938       -6.5984631105       -5.9054508123
 Si        -5.6720218356        3.5895651861       -5.9747630689
 Si         6.8979759701        7.9048234584       -1.8555806076
 Si         8.3765373446       -5.9988932900        3.1141728587
 Si         6.9030367125        9.1322265718       10.1283219871
 Si        -6.1189695193       -3.6031328500       -7.1638587279
 Si        -9.2879649422        0.4786450067       -6.6816307181
 Si         0.7482385344       -7.2026666352        6.5996983067
 Si         8.2913418332       -1.9457133210       -2.0665687190
 Si        -4.3973065630        4.3527926827        9.2171690889
 Si         4.4386651925        0.6223262863       -8.2492364204
 Si         0.5865161110        7.4242191936       -6.7932713020
 Si        -6.8923572412       -2.9059072076        7.1658545723
 Si        -2.4349689354        7.6433597873        5.1469234873
 Si         4.9350946673        9.8695347495        5.0167042112
 Si        -4.0305037034       -5.9080527859       -6.6739242127
 Si         7.2174564455       -8.2036187385       -5.1229416346
 Si         1.9435035368       10.6235601443        9.2339794483
 Si         6.6998094305       10.5423190804       -0.2947747942
 Si         7.1285593237       -0.1046480938       -7.6875778080
 Si         0.0376565712        4.5028885828       -7.6521949141
 Si        -9.4546816940       -3.3039151783        2.2621121288
 Si        -3.4814624168       -4.9591658042        9.9866557322
 Si        -7.9092896504        2.0746141540       -4.4272979605
 Si        -7.7573647532        7.2531767372       -0.0683579721
 Si        -6.4588882058       -7.7020016845        2.3869788233
 Si         6.4678965932        8.9152411210        2.3398193218
 Si        -1.7371640086       10.6749689634        5.9600592416
 Si         8.2010609637        5.1693326835       -1.0186047658
 Si         5.6557779700       -5.4360644544        4.5427996083
 Si         9.2916588552       -8.0462059727       10.4773926835
 Si        -9.8275901023        2.9281332386        7.5920646465
 Si        -9.3218011390        4.5154963664        3.7980879383
 Si        -5.9607704701       -0.2227580768        7.9672400196
 Si         9.2685522000        8.4542032364        6.5668639024
 Si         6.5939589085       -4.0102135052       -3.3318732411
 Si         9.7059181896        8.4649731537       -2.4837532806
 Si        -8.8523976343        4.5283356067        0.8096522335
 Si         2.4288828815        7.4735148164        8.7900247684
 Se        -2.2589504950       -0.6191253819        3.2568737978
 Se        -1.7220918598       -2.7391334711       -5.7505488352
 Se        -4.8660932185       -3.7964394496       -1.8110157402
 Se        -1.9348484464       -4.5774325965        1.7233528443
 Se         1.6451788916       -4.1443904496       -1.1996989389
 Se         1.8006552677       -6.9860101982        2.4030544752
 Se        -6.1402157325       -0.5202762519        1.6300660860
 Se        -3.7832766787        0.1703200230       -4.8741978811
 Se        -4.8707350511        2.4330909949       -0.4967103536
 Se        -1.9608113708        0.5800806799        7.9354057958
 Se         3.9427204446        0.3540762311       -1.2727990621
 Se        -2.0980711891       -1.1423660739       -1.0513625631
 Se         1.2628316096       -0.7092837990        0.9070495020
 Se         0.6548956438       -2.9473006667        4.8445275033
 Se         5.4306310332       -3.7294398606        0.5184337352
 Se         5.6054387502       -3.2592137079        4.7799593088
 Se        -2.2393257025        5.2433744296       -2.6556419117
 Se        -4.0240184080        5.6974422342        1.9264313899
 Se        -0.6950037424        3.0265648659        4.1447502312
 Se         0.3063703344        1.5215580062       -3.5468231012
 Se        -1.0184574504        2.9133282387        0.4078450233
 Se         0.4939994728        6.2266098620        1.1571588610
 Se         1.2948204549        4.3676650630        7.2339447035
 Se         5.0817364113        1.9097613975       -4.4416826896
 Se         3.4935842367        3.2263528299        2.2692250143
 Se         1.6157192890        1.0424142880        5.1912191598
 Se         3.6559201082       -0.0911615596        6.0503589125
 Se         7.8028764016       -0.6461882621       -0.3595575644
 Se        -2.2636660366        9.2623590275        0.1495523213
 Se         2.7915158745        9.3006063379        0.1822568313
 Se         2.7712689191        4.6907112705       -2.1117933772
 Se         5.2756307931        6.9308400448        1.9824763045
 Se         6.3432715266        3.9940521247       -1.6453996407
 Cd        -6.3638980142       -2.1332260782       -0.3095363154
 Cd        -3.9410338874       -2.1553372200       -3.8294490547
 Cd        -2.7668226237       -3.1167038059        3.8073779389
 Cd        -2.7333554814        0.5767951581        5.4927676788
 Cd         3.6755882372       -2.3380903580       -1.0239585273
 Cd        -0.2810725114       -2.7771625326        0.2825681127
 Cd        -7.4575026534        1.3718854787        0.1328236205
 Cd         0.9588143561        3.7020107117        1.9435937648
 Cd        -3.7188069635        0.1604933604        0.7963464428
 Cd        -0.3279915169        2.3415508001        6.9193977445
 Cd        -1.0090336182       -0.4013042608       -4.8014164433
 Cd         5.2639569102        0.1682446675        3.9462215437
 Cd         0.2756415381       -4.9549439648        2.9786559259
 Cd         3.1597447690       -2.6515697103        5.0895296674
 Cd         3.6893749296        0.5639964697        1.4079814158
 Cd         3.1832885552       -5.0792324156        0.8885617114
 Cd        -1.7120818803        7.4795469385       -1.6331591936
 Cd        -3.4205987759        4.5733491063       -0.3627300168
 Cd        -2.9837086929        4.1209013705        3.7251242518
 Cd        -4.2296916014        1.6151663716       -2.8312762897
 Cd         0.1831866531        4.5593896197       -1.4883889958
 Cd        -0.3211611078        0.7057830771       -0.9249192992
 Cd         0.0218160788       -1.2220350750        7.1154051090
 Cd         2.8401993051        1.3943403663       -3.4403754725
 Cd         6.4563287286        1.2662065055       -1.4653107047
 Cd         0.5230466113        5.5259868435        4.7980377804
 Cd         5.9386186709       -1.4150200091        1.6360582834
 Cd         0.4898222915       -0.4573139363        3.3369809752
 Cd         2.5360586001        7.2520923349       -1.4833349901
 Cd         0.1634137077        9.5100877150        0.1959336355
 Cd         2.7220010374        7.3133262285        2.2367135462
 Cd        -1.7619736702        7.0563898910        1.8802998966
 Cd         4.2051351122        4.2799170243        0.0279846323
