402
 i =     8200, time =    16400.000, E =     -5882.3931449915
  O         6.6885538049        2.5812655360       10.3701081789
  O        -5.4465606145       -2.7967141837       -7.7360013641
  O         9.1630843503       -4.9823733591        6.6033020770
  O        -7.3757002699        7.9185657929        1.2397397652
  O         1.7574421702        9.1574567970       -4.0406290735
  O         8.0106248088        7.7165079986        2.7784445303
  O        -6.0258373653        8.0978990263        3.4431951023
  O         5.1703335115        6.9695666137       -5.4687518045
  O        -8.0813615764       -4.6852229336       -1.0739111116
  O         8.7625179491       -2.3391598922        5.7162412842
  O         9.2702323036       -1.6107287609       -2.7479794695
  O        -3.2919849443       -1.2823170158       -7.8585800165
  O         8.3805400567       -0.3606600002       -6.4352634026
  O        -5.0011971544       -5.2097342592        9.5179543809
  O        -7.2828218079        0.0043101037        9.1673820203
  O        -6.4416139327        6.5845106072       -0.5167976545
  O        -0.1505269052       -6.4757903418        7.6368884736
  O        -6.4262591538        1.9509867124       -4.9880564926
  O        -1.7412430724        8.7562579974        6.0769403948
  O         8.2556894271       -4.3711364252       10.5506978557
  O        -7.9741454978       -5.5990775719        5.2099309742
  O         6.7685108961       -6.5057162236        3.8808545503
  O        -8.7947504831       -0.1662738720       -8.0268544853
  O         3.9270680596       -8.9129889690        4.9446445559
  O        -7.5869944856       -2.2002508618       -3.5717583171
  O        -8.8643227844        7.8845246365        3.4217943599
  O        -3.1403307725        7.8684202949       -7.7997844456
  O        -7.0665268435        1.9220511996       10.8906043132
  O        -4.9470523842       -6.6363622960        5.9874408483
  O        -8.7053494169       -7.3616999972        7.0891091103
  O         0.4603037549        7.7565337701       -2.0608008468
  O         3.5960593610        3.4425325933       -5.8445988176
  O        -7.0272145659       -6.6532435817        2.9015342879
  O        -3.6467269514       -6.4171177150       -8.1341198897
  O         7.0881925670       -8.1555466810       -3.2721890488
  O        -6.9776552537       -3.5840401129        9.0296171130
  O         8.4934014473        6.8756376695        7.5839790164
  O        -4.1052097013        2.8806049548       -6.3030121887
  O         4.9162256137       -4.6452695011       -3.4419923260
  O        -6.9002874461        6.5654843250       -5.3042051967
  O        -5.8197871897        4.0056349743        9.9243676582
  O        -1.8755941966       10.4276052662        8.0519003684
  O         5.5714689208        3.1718865363        6.7731431934
  O         4.3502593623        4.2778162817        8.7222486934
  O         9.4708764715        2.4712712204        9.5882843690
  O        -2.4234152675       -5.7538710515        8.9770497597
  O        -7.6107800162        8.0656230220       -7.4088968439
  O         4.9032241601        0.8494342807        9.9193394256
  O         6.1819904379        9.3591887490        8.9919084648
  O        -0.1583313607        4.3388901627       10.4847244336
  O         5.9529856742       -6.2300868694        6.4452477018
  O         4.8614990762       -6.3869108343       -5.3008456044
  O        -3.3711604195        5.2641784007       -7.4253403694
  O         2.6127428313        8.6574167574        9.5054687813
  O         8.3824313278        3.9393018750       -7.7246999970
  O         0.5694687285        5.6119129249       -6.7218893351
  O        -8.6480919984       -1.5037044920       -5.8764257472
  O         9.3695269651        2.9095440158        4.8423881782
  O        -4.9629248705       -5.0321812196       -6.1631050470
  O         4.5617392241       -7.1825483387       -2.7848155732
  O        -8.4145269610        9.0408863253       -5.2418241102
  O        -1.8890050814        9.9709259918       10.6469394923
  O        -6.2418301738        8.0353585460        8.4120302773
  O         3.3268934739       -5.5555370011       10.1328702827
  O        -7.9563709377       -1.1068509616       -1.0852221293
  O        -5.9405079310       -4.2515673922        6.7762199797
  O         0.3037233105       -6.3549551536       -5.2621161706
  O        -7.0421724287       -3.5686789945       -5.7411648247
  O         6.7749025939        1.0898538357        8.0754747361
  O        -8.8926102772        1.1179691353       -5.6111625567
  O         4.1784758333       -3.6646645042       -7.5506380965
  O        -9.6457029029       -3.9464556330        1.0180625778
  O        -8.1959970737        5.3900635216        1.0115453313
  O         4.6092540141        5.6118113568        6.1806424953
  O        -6.6562691144       -9.2829430778       -1.1575128988
  O        -6.8145386953       -8.6560129545        8.2617679181
  O         4.2396877921        8.0422152189        5.9216673206
  O         6.4881267336       -1.9508982512       -7.0547037318
  O         3.1940846889        3.9522028763       -8.4151099944
  O        -1.1920678234        5.5653561695        8.3915992451
  O         6.5173659832       -5.2085682619        8.7786579853
  O        -5.3962012477        0.7029834956        7.4636343739
  O         9.8273316960        4.5963785534       -4.4847227804
  O        -5.6873302104       -4.7310853107        4.1657223296
  O        -7.5057869593       -9.2749110818        3.1195764062
  O         7.3917642800        1.5653682463        5.4912479342
  O         9.5712920416       -2.2863684451        3.2034817448
  O        -0.5129043588        7.7670649251       -7.4047038382
  O         7.2650438279       -7.7310256556        8.1357746454
  O        -7.4199822350        5.2745822250       -2.5837884588
  O         8.9101747500       -3.9576314654       -1.4117567158
  O         5.8167594917        6.8264466722       -2.7907887737
  O         9.1486120180       -5.2558962008       -6.4686734802
  O         6.0934779233       -2.9911508596        9.9782084188
  O         6.1061045849       -9.4634802180        6.5103779178
  O         8.9557689020        4.3480501665        0.7859693563
  O         8.1798058136       -3.1869220005        8.1192713369
  O        -4.9708150029       -1.1802207211        9.4743255229
  O         6.2433993806        3.2588374850       -6.3921072135
  O         6.4221927671        9.6554734976        1.6242292869
  O        -6.2075152692        9.6882192160       10.6452271736
  O         1.8017720369        8.1868912866       -6.3998855442
  O        -7.5277115763       -6.2617524378        9.2881778271
  O         7.2324178122       -1.0233188696        3.8667059254
  O         4.1961138552       -6.3578775794        4.4794969989
  O        -7.2131812895        5.7460141471        7.2759632253
  O        -8.4123485229        2.7456162866        0.3626468948
  O         4.7664354946       -7.0725466154        8.7065358313
  O         9.2247064978       -6.2231821870       -0.1147337010
  O         9.1948931906       -6.9318806807        4.8510185899
  O         6.8132505499       -5.9058235051       -2.0742498495
  O         6.8151269480       -3.0116556185       -2.3953894266
  O        -0.2851636824       -8.4665057493        6.0134118409
  O        10.0199587571        6.5903384412       -6.1288111853
  O         7.3489264449       -0.0228312407       10.5632391804
  O         0.6387277309       -9.1441355118       10.7162163123
  O        -2.5032133793       -6.0631010307       -5.8312129605
  O        -1.8714832967        9.3489471526       -5.9862609533
  O        -3.7612108579        5.4390701535        9.1198510174
  O        -7.0829458085       -5.7734581555       -3.3177016938
  O         7.6130734579        6.3412648783       -4.8256796810
  O         3.0169643772       -8.3136407299       10.2451871047
  O        -0.9008876811       -7.7619044431       -6.9995170338
  O         6.4630277113        9.1820654557       -4.8967319580
  O         5.9597085314        8.9935224206        4.0538045215
  O        -0.4291457520       -6.6929253167       10.2051346823
  O        -8.5489450896        8.1559775023        7.0849762489
  O        -0.7992033762       -2.2016313842       10.8297574068
  O        -8.4976813259       -8.0311120585        0.5964074299
  O        -5.4476369670        4.4683358298       -4.5416470930
  O         8.1473127788        3.2097457415        7.4589746326
  O        -5.1466489760        6.4089969068       -2.9326654928
  O        -0.2537194359       -4.1902738041        9.1237895208
  O         8.3499980583       -8.8858969387       -0.0076518957
  O         6.2914300002        8.4517832133       -0.6554391279
  O        -6.1965799045       10.1728632369       -3.9214719586
  O         8.7298189363        7.9248731978        5.3067131340
  O        -3.8131205296        7.7658594423        4.6181719051
  O        -4.0962816466        2.1760441423        5.6230324292
  O        -5.4470682378        9.0996331135       -6.1668058281
  O         8.8508975300       -8.8748371418       -5.0270794024
  O         7.3478749861        7.2250869335        9.9354153517
  O         2.1009740656       -8.2760099842       -5.7446019773
  O        -6.8811499281        8.0794121626       -2.7098966770
  O        -6.0715837114       -0.2533666987       -7.7749778941
  O         2.0834700044       -7.2480281192        6.1044648197
  O         6.6351232184       -5.4519398235       -7.1961655459
  O        -8.2407465355        2.7808287284       -3.3823687479
  O        -4.9847778005       -8.0508350818        3.6120365151
  O         8.7814665702       -4.8012108282        3.2898154595
  O         4.0031313714        9.3919185567       -5.7599357571
  O        -8.1765924607       -7.5065446141       -5.3916418755
  O         3.3218585131        1.4406173294       -7.5188617969
  O         6.5060383572        5.4621591659        8.0611264397
  O         5.7692771703        0.5578654654       -6.9850487054
  O         2.3498006864       -5.6785072568       -6.7986403740
  O        10.4607192297        9.2380390211       -2.4563563674
  O        -8.7189329759        3.6673952677        2.8384803677
  O         4.9226780119       -7.2105206943       11.5759128293
  O        -6.3983661300        3.9166870592       -6.8473388465
  O         5.8847517176        8.4666657340       -7.6754103875
  O        -9.1340686996       -8.4108748763        9.5478483774
  O         4.1585330446       -1.1792478221       11.2813527205
  O        -7.9388860054       -4.0948892289        2.9969533815
  O        -3.7084106893        9.7328320734       -4.1637260166
  O         3.7533057382        6.4526671801       10.1085129825
  O        -6.3139579698       -1.7377531584        7.3049086411
  O        -5.1695042667        9.7893745531        5.6853315487
  O         7.4328330098        5.9716061722       -0.8148209099
  O        -6.3176827158        3.1663434773        6.7072678625
  O        -0.0117606080        7.3769530341       -4.8017890626
  O         5.7033972030        4.8777646139       -8.3916911172
  O         5.6112106554        4.6326269834       -4.2956411759
  O         9.5234521560        4.2706296894       -1.8245646162
  O        -2.9766928661        6.6016990579        6.7788970583
  O        -1.7614438651       -7.9281743052       -4.4730927130
  O         1.2915213607       -2.1291416968        9.0312200319
  O         1.4551284775       -3.8116206069       11.1411101982
  O         8.0921280570        9.6715638033       10.7616280429
  O        -1.4990335938        3.6374509679       -6.7769865508
  O        -9.1065417442       -8.8111528724       -7.3119693544
  O        -2.9159061400       -8.2418426587        5.5047671796
  O        -8.0909197720        0.3294109118       -3.3395631208
  O         9.2381431786        5.5708264708        4.0863869252
  O        -4.2846433062        9.7588504192        8.9275244688
  O        -3.3037302775        3.1351852920       -8.8025432071
  O        -1.4643272127        6.4600625013        4.7017559399
  O         1.1464316169        3.0756383350       -6.8355622351
  O         8.4847408965        9.3895118509        7.4983427175
  O        -2.9547907498       -3.8822822938       10.8933248048
  O         1.1619564892        6.2718891124        9.5002614730
  O        -6.8827923067       -4.8691077587       -8.0238650329
  O        -8.5518200075       -3.1159412642        7.1012297240
  O        -6.0795630899        7.5305468708        5.9682190993
  O        -3.4865758566       -4.3804972654        5.6285148033
  O        -4.1827373813        2.9844805735        8.1086084834
  O        -8.2799218529        4.2356311941       10.7956017911
  O         7.5015119425       -4.7796919213       -4.3119095585
  O         8.5716469552       -6.9900173763       10.9710734572
  O         8.7604301412        5.1252949387        9.5409227879
  O        -6.0048416185       -8.4435606686        1.2162895030
  O        -8.6624381462        3.6536304016        7.6848441676
  O         5.9731857709       -8.2744558255       -0.7979243356
  O         6.7658083825       -7.8740408403       -6.0462099307
  O         8.7790475690       -7.3655279947        2.2890688206
  O         2.3566264918        6.4402871875        4.9711545822
  O        -9.7547184468       -6.1632517501       -3.8255073817
  O        -6.5484111681       -6.7118603992       -0.7298917767
  O         9.9082263632        6.9497676505       -3.5886278956
  O        -9.6208623221        1.2858592510        6.9015995368
  O         2.5987878178       -6.0439576032       -4.2401462268
  O        -9.4916323631       -3.6132700977       -4.6953089817
  O         9.4685657909        0.1372607476        4.4901578029
  O        -5.3787644675        7.0017569367       -7.8896002139
  O        -2.4868385053        7.8671580015        9.0447499840
  O        10.3068430720        7.1885215297       -0.8255740594
  O         1.2578374775       -8.6261898070        8.2074221920
  O        -8.2095413383       -8.0547001746       -2.8096366404
  O        -7.9785039548        4.3242906950        5.1689999612
  O        -1.1208361296        9.1946779332       -3.5228561813
  O        -4.6549655528       -7.6886960996       -5.7835081509
  O        -4.1719830599        6.7387502270       -5.4633523589
  O         8.1719806376        8.1217236196       -2.2734020111
  O         2.8408485022        6.8253817016        7.6263395220
 Si         3.1275781091       -7.5224591575        4.8264775329
 Si        -6.6179332555       -4.9411761230        9.7503119373
 Si        -4.0362622337        6.6808325384       -7.0542567482
 Si         6.4673202440        1.0894516882        9.6795848168
 Si        -9.5026088300       -4.7450297677       -0.3784838339
 Si        -9.2316028588       -6.2539653712        6.0285796932
 Si         9.0783532931        7.2089615393        3.8919038214
 Si        -8.0755734332        7.6255687961       -5.9020767952
 Si         4.0854735809       -7.1178995673       10.2095401283
 Si        -3.0427639997        3.6720455320       -7.2511369474
 Si        -9.0288777665       -8.9068757080       -5.7551881482
 Si         6.0560352401        6.1965860295       -4.2981875767
 Si         3.4372778851        6.6968164432        6.1135028237
 Si        -7.3550059489        0.3076072765       10.7867162799
 Si         8.1800693023       -5.6021323123       -7.7452428750
 Si         6.1720511633       -6.5428107086        7.9793040444
 Si        -7.3571106651        9.6967308270       -2.6391428539
 Si        -4.9559409842       -4.9982894219        5.6487460860
 Si         4.2628833025        4.8693752807       10.2307967229
 Si        -4.9520595546       -1.3593105249       11.0954602058
 Si        -7.0621910071        7.3446319490        7.2297907595
 Si         2.4087583617        9.5272981583       -5.5014642995
 Si        -5.4766066723        6.1125495319       -4.5312424326
 Si         5.2526864958       -2.4546675172       -8.0876589097
 Si         7.0652063897       -9.2972432876        7.7566395739
 Si        -7.1543378440       -5.3124046234        3.8144153759
 Si         5.1212036560        3.3710663391       -5.1445256294
 Si        -1.7803044412        8.7363045608       -7.4217878686
 Si        -8.1831124447       -2.7730907026       -4.9862984229
 Si         5.2620780859        4.6556513931        7.4175741539
 Si         4.1963367691       -6.0155388977       -3.9117602048
 Si         6.9159417440        2.2781303936        6.8952685554
 Si        -8.7126120686        4.3361268828       -3.0106650586
 Si         9.2860685132       -3.3358316634        6.9097603235
 Si        -6.8147757347       -5.5172628305       -1.7915121137
 Si        -2.2134884595       -2.5111901015       -7.8662419408
 Si        -6.5212715831        6.6342743463       -2.1526435154
 Si         9.4825350603        3.9635935495       10.4323710465
 Si        -8.0760372883       -7.6230056284        8.6077832624
 Si        -2.6915971826        9.4893286066        9.1212514724
 Si         0.4709514514       -2.9867809246       10.0484301578
 Si         8.7073364261       -1.3622887868        4.3275956826
 Si        -5.0158126464        2.2341821252        6.9718526013
 Si        -6.9278600306       -8.1642685245       -0.0514709701
 Si         2.8358220681       -4.6170453750       -7.9823806281
 Si        -5.9360206692        9.5303105982        9.0496513344
 Si        -8.4831404972       -1.0846227165       -2.6249863426
 Si         5.4199746758        8.5131371213       -6.0252709888
 Si        -8.3106336974       -6.9179756318       -3.8671251544
 Si        -7.5178630040        8.4908040877        2.7181272875
 Si        -5.2833083758        8.3431102972        4.8504767540
 Si         0.3718824866        8.3788021119       -3.5237614127
 Si         6.0502493936       -7.4186816171       -2.2014506320
 Si         7.7645348466        6.1210394830        8.8073357616
 Si         9.0314081896       -4.9935023715       -4.8155672858
 Si         7.3149479874       -3.9004379904        9.3261122712
 Si        -2.1583849994        9.9075060153       -4.4854113105
 Si        -4.5487613283       -8.0748785438        5.1952439506
 Si        -0.5990157121       -8.1040723330       10.8869509417
 Si        -6.9087447223        3.5116498440       -8.3385742458
 Si         1.8901710702       -6.6482773952       -5.5722359153
 Si        -6.0851488048        8.4859642337       -7.6165974990
 Si         9.2515608761        6.1311002195       -4.8099088973
 Si        -7.5368263564        4.1982347408        6.7560695053
 Si        -0.7860830354       -5.7117744008        8.9156524560
 Si         9.1162919827        1.4245668799        5.3447737379
 Si         9.2768183925       -7.6289705907        0.7189844372
 Si        -5.0064692670       10.1425388059       -4.9814600996
 Si         0.1713572297        5.0799147032        9.0306371767
 Si        -2.6295000744        6.3236427571        8.3769802241
 Si         6.7609224657        3.6993598749       -7.8754347021
 Si         5.8222232382       -6.6452334294       -6.5947425489
 Si         2.7402760291        2.9284969437       -7.1597311004
 Si        -1.1559325390       -6.9224956493       -5.5758273959
 Si        -5.5931133571        3.2199619723       -5.6131029441
 Si         6.9199489617        7.3020257479       -1.6580418404
 Si         8.4030433867       -6.3932279426        3.5288231055
 Si         6.8335951644        8.6909353710       10.3281609242
 Si        -6.0190930326       -4.0744040400       -6.9077907810
 Si        -9.3768058253       -0.1947755951       -6.4691639795
 Si         0.7865341456       -7.6226734830        6.9937262293
 Si         8.2951599748       -2.5274812260       -1.7944388754
 Si        -4.2652120288        3.8952894447        9.4226379264
 Si         4.4414635934        0.3776196564       -7.9771437102
 Si         0.5012716103        7.1706188723       -6.2924802401
 Si        -6.9358253618       -3.1854226482        7.4396585761
 Si        -2.4724240996        7.4648342971        5.4793820526
 Si         5.0987637255        9.2462389943        5.4219054216
 Si        -3.9832366623       -6.3564363844       -6.5256155406
 Si         7.2387967556       -8.7960496378       -4.8113874006
 Si         1.8872317825       10.1509708974        9.6222900561
 Si         6.8036325013        9.9392576343        0.0451936135
 Si         6.9918916389       -0.4303218772       -7.2547555382
 Si        -0.0003211031        4.1676448344       -7.2933764134
 Si        -9.4940515168       -3.7404065098        2.6560658997
 Si        -3.4836973287       -5.2761956852       10.1273512685
 Si        -7.9400495949        1.6274350896       -4.3968124956
 Si        -7.8882681985        6.7375692061        0.2413001594
 Si        -6.4042737758       -8.1066272867        2.7810286697
 Si         6.5246778899        8.3334809454        2.6535749574
 Si        -1.7953731840       10.3604667299        6.3903035373
 Si         8.2964506333        4.5211548001       -0.6950601373
 Si         5.6851000626       -5.7897806777        4.8887749792
 Si         9.2407071091       -8.5011406706       10.8214690255
 Si        -9.8526598169        2.5864369152        7.9324356474
 Si        -9.2712675470        4.1838907902        4.2131257745
 Si        -5.9911214373       -0.5547545103        8.3659812355
 Si         9.1987607075        8.0720755404        6.8341576958
 Si         6.5450624777       -4.5481386152       -2.9877140275
 Si         9.7811627613        7.8601614916       -2.2190344632
 Si        -8.9456558599        3.9313832691        1.2165257476
 Si         2.5594034737        7.0388523051        9.1721013963
 Se        -2.2811948912       -0.7100231130        3.3124903312
 Se        -1.7020445888       -3.1688047263       -5.6033674998
 Se        -4.9238426562       -4.1588100098       -1.4602353430
 Se        -1.7193575426       -5.0655124563        2.3425313743
 Se         1.6270003765       -4.7793817023       -0.7796312965
 Se         1.7923491354       -7.4230393184        2.9203876545
 Se        -6.4937717949       -0.8588909395        1.9566599671
 Se        -4.1014825357       -0.3881370539       -4.4206417682
 Se        -4.7834337596        1.5778379503        0.1015767752
 Se        -1.9249937882       -0.0698507286        7.9518222966
 Se         4.0248866793       -0.6439863089       -1.3654677454
 Se        -2.2169637988       -1.9675412873       -0.6872113594
 Se         1.2624025124       -1.4047931758        1.2618147846
 Se         0.7435646114       -3.2102327662        5.2637752514
 Se         5.4450506605       -4.6188246359        0.8278856068
 Se         5.9354614910       -3.5617695074        4.9036545027
 Se        -1.9896879243        4.7235737564       -2.1165610852
 Se        -4.0533534380        4.9484508338        2.3055607590
 Se        -0.7587948505        2.7010669108        4.5533350066
 Se         0.3426794617        0.9766204547       -3.2916904873
 Se        -0.5757492471        2.1945187283        0.5507847963
 Se         0.7243552130        5.5741589114        2.0994316418
 Se         1.1804029500        3.8413565532        7.4321323522
 Se         5.2612817579        1.4470605282       -3.9192353430
 Se         3.6557413937        2.4703737250        2.2782212465
 Se         1.6533749529        0.6972344797        5.4416981507
 Se         3.7918545332       -0.4134149490        5.8366642065
 Se         7.9538520297       -1.1268835630        0.0217064288
 Se        -2.3300260491        8.4842393787        0.8247641056
 Se         2.6856111165        9.2052959406        0.8679189451
 Se         2.8004897513        4.7409863345       -1.8305429523
 Se         5.4363173977        6.2737957783        2.3621981800
 Se         6.4707329281        3.1960696191       -1.0477881740
 Cd        -6.5834027495       -2.6519799945       -0.0228073798
 Cd        -4.0818788497       -2.8524819581       -3.5715416076
 Cd        -2.8444708935       -3.3450934448        3.9144908519
 Cd        -2.9106160052        0.1854648273        5.6017219971
 Cd         3.6972431680       -2.9758431313       -0.6006753858
 Cd        -0.5324805913       -3.7962841068        0.4882571094
 Cd        -7.8284977276        0.7007380547        0.4474285141
 Cd         1.1162150553        2.7612735122        2.2719491007
 Cd        -3.7227619084       -0.7035946250        1.2300490131
 Cd        -0.9657279031        2.1825466829        7.2294078058
 Cd        -1.3682614656       -0.7361202209       -4.4351062360
 Cd         5.3347784481        0.1927365823        3.5652882243
 Cd         0.4001854244       -5.3857771620        3.7390689193
 Cd         3.2883044158       -2.9181024498        5.1283417123
 Cd         3.6360341435       -0.1812861891        1.4058097590
 Cd         2.9620534503       -5.7568631892        1.1936211737
 Cd        -1.6119940398        7.0479964657       -1.2571468715
 Cd        -3.1204502887        3.6822653408        0.2215073336
 Cd        -3.1832176430        3.5210915466        4.1009580288
 Cd        -4.1276600322        0.8492466399       -2.1539713164
 Cd         0.3823881185        3.9690772957       -1.1757975237
 Cd        -0.2853509427       -0.1003900765       -0.6996118190
 Cd         0.4723948591       -1.2741511041        7.3365933077
 Cd         2.9086884264        0.6276818515       -3.3377658354
 Cd         6.4366636906        0.5655665900       -1.2086280425
 Cd         0.3193671357        5.1837291372        4.8607383126
 Cd         6.1398799097       -2.3428336906        2.0910456085
 Cd         0.4656118952       -0.9622077931        3.7128260671
 Cd         2.5177834967        7.2239748917       -0.9520040965
 Cd         0.2438057461        9.0345144658        0.9428044860
 Cd         2.9135433847        6.7741659166        2.6558588157
 Cd        -1.8813937724        6.4000108288        2.4121300896
 Cd         4.2457224750        4.1618485480        0.2949523519
