402
 i =     6300, time =    12600.000, E =     -5882.4101188229
  O         6.6782753711        1.5579410357       10.6357812605
  O        -5.5041099587       -3.8457686801       -7.5768784430
  O         8.9890335283       -6.0810026039        6.9277592585
  O        -7.7522016358        7.0650159978        1.4959812729
  O         1.6093501291        8.4076840056       -3.9211861853
  O         8.0294704663        6.9216238516        3.2460046657
  O        -6.0764001007        7.2299515396        3.5377830709
  O         5.0322039613        6.0576435247       -5.1805470523
  O        -7.9485645064       -5.7960859849       -0.7712847404
  O         8.7585557844       -3.5338783604        5.8270339733
  O         9.3020211865       -2.4970883129       -2.3756037505
  O        -3.3958614199       -2.3250027419       -7.6863608871
  O         8.2613512603       -1.2229248728       -6.4477385710
  O        -5.1325240796       -6.3954290769        9.8056820573
  O        -7.1953826644       -0.9884697061        9.4523921385
  O        -6.4788882976        5.8396085538       -0.4045542178
  O        -0.2791198121       -7.4747625814        7.7923309903
  O        -6.6015315452        1.2385172091       -4.6576991040
  O        -1.9614183503        7.7215621991        6.0322993330
  O         8.4062952080       -5.2923555178       10.8081141486
  O        -8.2656864883       -6.4168929702        5.3472905657
  O         6.6813457696       -7.3789660573        3.9211616296
  O        -8.7713737442       -0.8749407569       -7.7436618503
  O         3.8555952366       -9.8782326660        5.2165658234
  O        -7.6791171180       -3.1876409089       -3.3670668642
  O        -8.7442411610        6.7984098946        3.8397886530
  O        -2.9453099039        6.5628878308       -7.4505156372
  O        -6.9837459506        1.0073136878       10.9910537156
  O        -5.2647740050       -7.7094999598        6.1905170096
  O        -8.9093518810       -8.2232054094        7.2165046382
  O         0.5209460596        7.0139037878       -1.7800619980
  O         3.4886084210        2.3258916910       -5.5202691527
  O        -7.2125430216       -7.6259003126        3.1747111842
  O        -3.7204327375       -7.4687992610       -7.7293741966
  O         6.8741604538       -9.0125770907       -3.3171072848
  O        -6.9286655266       -4.6037118233        9.3361905055
  O         8.8637983152        5.7253482190        7.9778904692
  O        -4.1467259390        1.9642886111       -5.7748828442
  O         4.9015706942       -5.6715229025       -3.5010604107
  O        -7.0577694029        5.8859741777       -4.9490128414
  O        -5.8253908417        3.2045162898       10.1000739165
  O        -1.9554110203        9.4162329824        8.2098162836
  O         5.6556089074        2.2554786573        6.8793372191
  O         4.5906577899        3.2076188615        9.0162694902
  O         9.4729331572        1.4565434275        9.6639615157
  O        -2.5874418051       -6.7346195953        9.2500311680
  O        -7.7469285262        7.0752106955       -7.2528361412
  O         4.5973422001        0.0277257687       10.1036163790
  O         6.1045705540        8.3195540765        9.3783610071
  O        -0.4329122656        3.6067446672       10.7181088215
  O         6.0882514890       -7.3311776824        6.5546945655
  O         4.5745377996       -7.3989517002       -5.3984753780
  O        -3.7451341258        4.1961413369       -7.0728678290
  O         2.5396314861        7.7995386643        9.8255023340
  O         8.3709515606        2.8030426294       -7.4636080968
  O         0.5302664319        4.6290928276       -6.3184271206
  O        -8.7783292700       -2.2154116445       -5.5116148758
  O         9.4286361533        1.8126260200        5.0525387157
  O        -5.1363950846       -5.9726481344       -5.9771609339
  O         4.4494260041       -8.1915432013       -2.7140195631
  O        -8.5777711587        8.2187208598       -5.1206999469
  O        -1.9167816128        8.7884179745       10.7897229031
  O        -6.2442776784        7.3077376666        8.4783224285
  O         2.9412466586       -6.4609775863       10.1776133532
  O        -7.9164831561       -2.2877112713       -0.8162771510
  O        -6.3211897512       -5.3173427830        6.9285435323
  O         0.0879874301       -7.1004596820       -5.2660662349
  O        -7.0176051777       -4.2982035578       -5.5659810397
  O         6.6730336643        0.2239615665        8.3565736908
  O        -9.0766125791        0.3669504403       -5.2990223200
  O         4.0802751457       -4.8408604673       -7.3624477239
  O        -9.6047785728       -4.8039151588        1.1135093445
  O        -8.2383521977        4.5441275179        1.1098809872
  O         4.3064696630        4.4961211924        6.7259545579
  O        -6.8271900670      -10.3439586134       -0.8935607578
  O        -6.7690427349       -9.4167545305        8.4006598002
  O         4.3716856495        6.9919556295        5.8931902239
  O         6.1923111845       -2.9592092771       -6.9280505636
  O         3.4466515955        2.8555543713       -8.0929351881
  O        -1.0870021226        5.1104139845        8.5945305933
  O         6.9030323926       -6.3738090597        9.0542212800
  O        -5.2886122212       -0.1220286265        7.7650787260
  O         9.7891279904        3.5788755128       -4.2781168924
  O        -5.8148207608       -5.7449897757        4.4124550052
  O        -7.6466352364      -10.2245615162        3.3272453853
  O         7.4677710481        0.4853451474        5.8488642765
  O         9.4926674456       -3.2217260055        3.2635370468
  O        -0.2984703121        7.0283937511       -7.1015042863
  O         7.2614340612       -8.8202046319        8.3277673674
  O        -7.5058115987        4.3120848273       -2.4201295448
  O         8.9821435484       -4.9739275093       -1.3609238676
  O         5.8564432510        5.8668952280       -2.5917997665
  O         9.0796648356       -6.6094513321       -6.3214953910
  O         5.9255213561       -4.1442382842       10.2503852834
  O         5.9369824825      -10.4080200205        6.8293128485
  O         8.9548482891        3.1406441313        0.9515745492
  O         8.0518843692       -4.1377447583        8.4223157880
  O        -4.9817829141       -2.2485324544        9.5795786301
  O         6.2035698990        2.1457602916       -6.0610377348
  O         6.4867979139        8.6958958684        1.8342296392
  O        -6.4266846001        8.7786997650       10.7255632821
  O         1.9437117626        7.2461125026       -6.2020329430
  O        -7.6682471112       -7.1389093129        9.2451125739
  O         7.3167947143       -2.1804748668        3.9606068122
  O         4.0412445204       -7.3782444927        4.7517208769
  O        -7.4037303633        4.8733116328        7.6629602757
  O        -8.0540377331        1.8092343922        0.5630445968
  O         4.7347568878       -7.8569976748        8.7294646842
  O         9.1736959807       -7.1635767826       -0.0584996230
  O         9.0119316147       -7.8747266030        4.9449043951
  O         6.4707001903       -6.8554528880       -1.8527389149
  O         6.9560788423       -4.1643841171       -2.4184822347
  O        -0.5069138181       -9.5588656145        6.1914880462
  O         9.8598633247        5.7852328673       -5.9794433315
  O         7.0111495727       -1.1023860771       10.6001023776
  O         0.5861014092      -10.1845573499       10.8776603281
  O        -2.7056766844       -6.8964477082       -5.5273009745
  O        -2.2100282732        8.4054552219       -5.8780082852
  O        -3.5735774071        4.4185052527        9.4313642319
  O        -7.1612513355       -6.5983397659       -3.2177575361
  O         7.5015063055        5.0262919250       -4.5899161829
  O         2.6786066763       -8.9350507493       10.0775712340
  O        -1.1770118520       -8.7063838894       -6.8229547957
  O         6.4516972451        8.2134505283       -4.7686129282
  O         6.0135184579        8.3798651310        4.2500366859
  O        -0.5926798956       -8.0389436480       10.1742032832
  O        -8.4944368752        7.1079556378        7.2804289730
  O        -0.8883730077       -3.3417736749       11.1457789462
  O        -8.5535215587       -9.0677952660        0.5819462899
  O        -5.7007325476        3.6631121765       -4.4342559887
  O         8.2536798728        2.2779726135        7.4632964865
  O        -5.2501743092        5.7369611862       -2.9315252213
  O        -0.2552267460       -5.4193527586        9.5774630954
  O         8.2674784243       -9.7682770161        0.3204313211
  O         6.4238730416        7.4375658923       -0.2976957094
  O        -6.2994933813        9.1296010409       -3.5962097215
  O         8.7493459282        6.7295534241        5.7459029355
  O        -3.9289173238        6.7074564806        4.6799885556
  O        -4.0066473402        1.2976425962        5.9057624740
  O        -5.6053515243        8.5173445353       -6.1782959243
  O         8.7250879025       -9.8295357889       -4.9858319845
  O         7.2896427952        6.1931706271       10.1825956342
  O         1.9081258729       -9.2018458696       -5.7924286893
  O        -7.3793776774        7.0582719015       -2.4142152778
  O        -5.9533672661       -1.2880285247       -7.5138719203
  O         1.8415859310       -8.2915438143        6.3141105311
  O         6.5799676681       -6.5734644639       -7.0474758701
  O        -8.4463943143        1.8517166836       -2.9168443564
  O        -5.0294586720       -9.0844954027        3.8043666340
  O         8.7205401969       -5.8186015110        3.2008302631
  O         3.9579617571        8.4656233497       -5.5056874706
  O        -8.2002165883       -8.5437155649       -5.0936019135
  O         2.9981083321        0.2914023867       -7.1848162752
  O         6.6278445518        4.4682989940        8.0981811264
  O         5.4515513440       -0.5413695719       -6.7922740183
  O         2.1620481256       -6.7811574431       -6.8349933153
  O        10.1455963768        8.5512562570       -2.3266194351
  O        -8.8182352065        2.7106212811        2.9518883325
  O         4.7510060835       -8.1673624669       11.4752917597
  O        -6.4443319794        2.9530583270       -6.7559717610
  O         5.8729612630        7.6002888954       -7.3005393282
  O        -9.1401192182       -9.3803747317        9.6027939344
  O         3.8951715820       -2.2475030146       11.2548961418
  O        -8.0438711725       -5.0775426087        3.1980343634
  O        -3.8397897000        8.8670361122       -4.0060067602
  O         3.6828514978        5.3380660718       10.2681061862
  O        -6.4109261594       -2.6213667786        7.4773679608
  O        -5.3206840231        8.7826338837        5.9238514880
  O         7.4802486473        5.0310012843       -0.4751304303
  O        -6.1423514669        2.4877376418        6.9705047158
  O         0.0056291359        6.3615717390       -4.5043634146
  O         5.8220645249        3.9215677486       -8.0683271836
  O         5.2021552644        3.7167270787       -4.1376083752
  O         9.3890127222        3.6300742016       -1.6256388661
  O        -3.1684639371        5.4961367119        6.9644343065
  O        -1.6375530586       -8.8795506364       -4.2623237606
  O         1.0600924825       -3.3315786725        9.0068122046
  O         1.4581560868       -4.6232956632       11.3799608241
  O         8.0553648105        8.7935262023       10.8680636069
  O        -1.6236527584        2.7779268290       -6.4449183650
  O        -9.2093180690       -9.7148214115       -7.2285694163
  O        -3.1202330774       -9.2426751979        5.7764508003
  O        -8.0014001487       -0.6608536122       -3.0240946462
  O         9.1460912364        4.5892445992        4.1655210623
  O        -4.3368599387        9.1775231240        9.2322292472
  O        -3.5776991924        2.0781155932       -8.4161384729
  O        -1.6487333737        5.3416794038        4.7964929736
  O         1.0973751480        2.2772867721       -6.9660957059
  O         8.3996295890        8.3159515558        7.8186751465
  O        -3.0468227141       -4.8889675890       11.0263318880
  O         1.1265043765        5.6250788030        9.8837066787
  O        -7.1145072607       -6.0247535521       -7.7484737996
  O        -8.6644112036       -3.9247467974        7.4765066864
  O        -6.3466980834        6.4689669719        5.9176033487
  O        -3.7169951005       -5.5326533399        5.9793040992
  O        -4.0365971516        2.0776441082        8.4625943533
  O        -8.5306023611        3.1272345566       10.9443920224
  O         7.4795261278       -5.9880730010       -4.2865061219
  O         8.4643021215       -8.0218208504       11.0432437131
  O         8.5896870656        3.8883216609        9.6731967875
  O        -6.0898772463       -9.3274290104        1.4933819765
  O        -8.5511958548        2.5181163733        7.7412740326
  O         5.9924622106       -9.2868212812       -0.7295979320
  O         6.5439051935       -8.9826964490       -6.0225309453
  O         8.6998281381       -8.4083391105        2.3356663913
  O         2.2816310550        5.5469509016        5.2528121665
  O        -9.5982562237       -6.9907476458       -3.7557988704
  O        -6.2806333170       -7.6968003571       -0.6527904203
  O         9.7021794127        6.0596654720       -3.3716366791
  O        -9.4375923084        0.2359216166        7.1307535721
  O         2.4742817196       -7.0067954689       -4.1207641092
  O        -9.7066432348       -4.4985501608       -4.7596693498
  O         9.5678740555       -1.0333710573        4.8580730244
  O        -5.4119841594        6.3740989792       -7.7914125141
  O        -2.8048739093        6.9827839062        9.0378469792
  O        10.2217512709        6.2125669392       -0.7031848959
  O         1.0263137357       -9.9380702397        8.2835270845
  O        -8.0253157852       -8.7926562494       -2.3952108728
  O        -8.0077201102        3.6700785727        5.3632597799
  O        -1.2916321264        8.1672782903       -3.2347063047
  O        -4.8376442203       -8.5765740335       -5.4948212235
  O        -4.3337592366        5.8150395369       -5.2947446919
  O         8.0768404025        7.1176220461       -2.0157668837
  O         2.6506965033        6.1589252984        7.8404826605
 Si         2.9568468670       -8.5443014887        5.0480924957
 Si        -6.7452909810       -6.0567137285       10.0745037558
 Si        -4.2482072061        5.6919414974       -6.9230639496
 Si         6.2685612194        0.1173316937        9.9088926751
 Si        -9.4967304712       -5.6425283800       -0.2437713059
 Si        -9.5223477869       -7.2068094838        6.1346557224
 Si         9.1403396183        6.2434903504        4.2736989234
 Si        -8.2255840279        6.7237600090       -5.7336205190
 Si         3.8509077010       -7.8500133500       10.1161532621
 Si        -3.2180007762        2.6630334600       -6.9189239867
 Si        -9.1946569817       -9.7765054567       -5.6335117423
 Si         5.9323212259        5.2173821700       -4.0928718827
 Si         3.3129898058        5.7820012118        6.4012371698
 Si        -7.2547310882       -0.5928919259       11.0303528713
 Si         8.1244804395       -6.6492117398       -7.5890987020
 Si         6.2494912702       -7.5322407845        8.1892932985
 Si        -7.5397516057        8.9194547066       -2.4230459389
 Si        -5.2238847336       -6.0336356076        5.9527858310
 Si         4.4088777852        3.8478162269       10.4988766725
 Si        -4.9239293132       -2.3816767835       11.1960754661
 Si        -7.0586932538        6.3958089841        7.4060502207
 Si         2.3386098617        8.6446505780       -5.3876425086
 Si        -5.6455019116        5.2750948747       -4.4469928452
 Si         4.9630248594       -3.5499752116       -7.8944797436
 Si         6.9165863002      -10.4368818579        8.1008744316
 Si        -7.2916504320       -6.2656616830        4.0327364935
 Si         4.9892716257        2.2774325351       -4.9079559819
 Si        -1.8098870297        7.5461890416       -7.1548272099
 Si        -8.3270620575       -3.5999975597       -4.8279370214
 Si         5.3028826049        3.6725923027        7.6925616257
 Si         4.0760774208       -7.1097341251       -3.8601122153
 Si         6.9534429914        1.3241675133        7.1614454045
 Si        -8.9396311144        3.4117721075       -2.8054416456
 Si         9.1933129976       -4.4101257604        7.1814133189
 Si        -6.7375043228       -6.4211793274       -1.5800586285
 Si        -2.3465118447       -3.6011969005       -7.5338321902
 Si        -6.6031999241        5.7044100869       -2.0618337486
 Si         9.3371503238        2.7954629080       10.6291363487
 Si        -8.1848448396       -8.5454550943        8.6245398168
 Si        -2.8495482293        8.5179519904        9.2822408383
 Si         0.3712950255       -4.0574176713       10.2454542009
 Si         8.7130466262       -2.5190093967        4.5355168784
 Si        -4.9057416261        1.4757484054        7.2124074392
 Si        -7.0280318751       -9.0534731965        0.0504696813
 Si         2.6172421204       -5.6677424830       -7.8321713744
 Si        -5.9562866618        8.7099388519        9.1421182957
 Si        -8.3799763795       -2.1465358440       -2.2829251581
 Si         5.2943528025        7.6071345710       -5.7076796428
 Si        -8.1772791053       -7.7994456144       -3.5705401798
 Si        -7.6088556475        7.5464770463        3.0077771418
 Si        -5.3784806828        7.4045109730        4.9824263921
 Si         0.3009379811        7.4965512569       -3.3232781109
 Si         5.9857118383       -8.3955433252       -2.0944016349
 Si         7.8071779866        5.1183283363        9.0255689637
 Si         9.0390537444       -5.9960918082       -4.7893633251
 Si         7.2610392025       -4.8960538782        9.6281709380
 Si        -2.2188809385        9.0105853390       -4.3003307635
 Si        -4.7063926759       -9.0843168859        5.4268715518
 Si        -0.7529740865       -9.2859308140       11.1495227039
 Si        -6.9753135383        2.5971936913       -8.2613893970
 Si         1.6406477320       -7.5959821905       -5.5396366072
 Si        -6.2807254212        7.7532382359       -7.4262937942
 Si         9.1532678876        5.1149344475       -4.5735350425
 Si        -7.4923134478        3.4080936879        6.9448231034
 Si        -0.9120352340       -6.8491545616        9.1648008206
 Si         9.1035888763        0.3599119398        5.6102936448
 Si         9.2799246928       -8.5588982206        0.8050516907
 Si        -5.2097990494        9.3202532331       -4.7716216575
 Si         0.1497496866        4.4165687316        9.4202302575
 Si        -2.6892389103        5.4521689392        8.4975985053
 Si         6.7546554157        2.5872552510       -7.5509427674
 Si         5.6275888177       -7.7729085936       -6.5736231211
 Si         2.7177014829        1.9601946033       -6.9411092809
 Si        -1.3825717821       -7.8113494820       -5.4947130453
 Si        -5.7138423567        2.4111020869       -5.4392609598
 Si         6.8873699101        6.3083320984       -1.3367976407
 Si         8.2482368128       -7.3749658019        3.5620293072
 Si         6.8600085334        7.6526508969       10.7219834908
 Si        -6.2302721738       -5.0289051526       -6.7506909056
 Si        -9.4746466549       -0.9387812650       -6.2133686063
 Si         0.5571462716       -8.8176599990        7.2352878148
 Si         8.2659261381       -3.5489388326       -1.5773747704
 Si        -4.2080679385        2.9975280002        9.7679710386
 Si         4.1645244867       -0.6345683273       -7.8706012427
 Si         0.5918993359        6.2449475537       -5.9853074400
 Si        -7.0768737135       -4.1252073477        7.7719675258
 Si        -2.6656563375        6.2810626278        5.5960283868
 Si         5.0448744728        8.3848116112        5.5756758314
 Si        -4.1471503443       -7.2191049647       -6.1835054058
 Si         7.1443939155       -9.6851103229       -4.7070442443
 Si         1.7556188578        9.1794590269        9.6957350062
 Si         6.7933686725        8.9868314416        0.2339828777
 Si         6.7924682781       -1.4943124723       -7.1413824743
 Si        -0.1644483386        3.3113618819       -7.0572287809
 Si        -9.5124506874       -4.7163609838        2.7108262941
 Si        -3.6094532415       -6.3621015078       10.4427134734
 Si        -8.0650958815        0.6824052665       -3.9691083556
 Si        -7.9234191910        5.9072021685        0.3698107005
 Si        -6.5194666143       -9.0768358198        3.0128283119
 Si         6.4784728980        7.4451718532        2.9516560236
 Si        -1.9610467241        9.2546098788        6.4912827598
 Si         8.1727546118        3.5656042336       -0.4396683356
 Si         5.5808328498       -6.8725296616        5.0600771279
 Si         9.2036876256       -9.4334577992       10.8546690080
 Si        -9.7645365664        1.5154911498        8.0110469001
 Si        -9.2552724169        3.2120923384        4.4124839078
 Si        -5.9607699989       -1.4711816847        8.5289047530
 Si         9.2681690039        7.0589167114        7.1766805911
 Si         6.4901710769       -5.6254211326       -3.0154573231
 Si         9.7255286042        7.0522361620       -2.0295728380
 Si        -8.8099579498        2.9742962547        1.3454157343
 Si         2.5243591878        6.1780205930        9.4912530363
 Se        -2.4401512017       -1.9395116334        3.6969111325
 Se        -1.8467142871       -3.9553640717       -5.2680019515
 Se        -4.8411673902       -5.1463058326       -1.3449884776
 Se        -2.1509267170       -6.2775828893        2.3561554141
 Se         1.1893353278       -6.0722795213       -0.7579748287
 Se         1.5706021349       -8.3699913787        3.2356345704
 Se        -5.8683453998       -2.0691599786        2.2866712983
 Se        -4.3053923691       -1.2087512897       -4.4074255518
 Se        -4.5259082605        0.7462807639       -0.0176772651
 Se        -2.0013506042       -0.9175425715        8.3398915465
 Se         4.1331496006       -1.8854517895       -0.8097828497
 Se        -2.1211433066       -2.7620522969       -0.6514144292
 Se         1.2648989383       -2.5407765165        1.4705761414
 Se         0.5996912295       -4.2395495632        5.6535584006
 Se         5.0468765761       -5.7355677864        0.9986906253
 Se         5.5788383913       -4.6491553408        5.0502560858
 Se        -2.3071314507        3.9815860153       -1.9536923892
 Se        -4.0597082960        4.0774211847        2.3553691215
 Se        -0.7690901934        1.5860241969        4.9034522312
 Se         0.2707895777       -0.0195785145       -3.0222479959
 Se        -0.6702860399        1.2582511598        0.7562745462
 Se         0.7667044574        4.6839632622        2.3344366582
 Se         1.1233510172        3.0364387189        7.9320601071
 Se         5.1896516743        0.1672798754       -3.6811146690
 Se         3.6395787961        1.4001148231        2.5765944571
 Se         1.6761632284       -0.3121359363        5.7758933366
 Se         3.8840842158       -1.4045542938        6.3811551648
 Se         7.8911750842       -2.4073782862        0.3723211531
 Se        -2.1096727410        7.8223800242        1.0619135474
 Se         2.8896361150        8.0083215468        0.8792627602
 Se         2.6498745364        3.6271667963       -1.6015329010
 Se         5.4322044889        5.4514695246        2.6979791580
 Se         6.5693223462        2.1497767937       -1.1067057635
 Cd        -6.2141139667       -3.3759762383        0.1414251608
 Cd        -4.3855407653       -3.6857463432       -3.5346873996
 Cd        -3.0014991237       -4.4305443320        4.1632806955
 Cd        -2.9005981310       -0.5873110692        5.8999699044
 Cd         3.3585029582       -4.4828923272       -0.7492042445
 Cd        -0.6938514925       -4.7540446046        0.5468236545
 Cd        -7.2790504001       -0.1757953782        0.8157013344
 Cd         1.1352901498        1.9505540173        2.5474563421
 Cd        -3.3744272358       -1.4898957647        1.3254867426
 Cd        -0.9282237634        1.4371733367        7.7227255943
 Cd        -1.5348188610       -1.2949351438       -4.4376918669
 Cd         5.2806065985       -1.2399243525        4.1111644997
 Cd         0.0771926320       -6.1082156064        3.9786255200
 Cd         3.1740087209       -3.8590943557        5.5548980389
 Cd         3.6664601390       -1.5130062588        1.8384309182
 Cd         2.6880529788       -6.9205538941        1.2932564259
 Cd        -1.5031174973        6.2220393136       -0.9672637538
 Cd        -3.2351702595        2.9119654148        0.3319655544
 Cd        -3.0248466261        2.8070445904        4.3743690190
 Cd        -4.3927086502        0.3418172616       -2.3981432767
 Cd         0.1321262146        2.6459074930       -1.4037710423
 Cd        -0.1152357784       -1.0685930599       -0.4005989060
 Cd         0.3599234408       -1.8754180702        7.6580296390
 Cd         2.9156729838       -0.3954450723       -2.7751493708
 Cd         6.5347798660       -0.6580208203       -0.8987710132
 Cd         0.4701203733        4.2682914330        5.1846861465
 Cd         5.7439100130       -3.6382707982        2.3886602733
 Cd         0.3476271500       -1.9260766358        3.9016034692
 Cd         2.3766740088        6.0985989174       -0.6605447508
 Cd         0.3293209914        8.1374684647        1.3422579861
 Cd         2.9984286101        6.0790044303        2.9688264016
 Cd        -1.8406232948        5.5189722631        2.3924085992
 Cd         4.1698758997        2.6339234898        0.4217780176
