402
 i =     9700, time =    19400.000, E =     -5882.4030819111
  O         6.7437717839        2.9512335371        9.9934991220
  O        -5.2957522313       -2.2766665770       -8.1997744721
  O         9.2661789339       -4.3476512024        6.2324335529
  O        -7.6874365858        8.6743905756        0.9342276124
  O         1.5654798923        9.7659917443       -4.4093025529
  O         8.0299606813        8.6668422688        2.8193560895
  O        -6.0560993766        8.5555214970        3.0325165120
  O         5.2182638738        7.5883966816       -5.7334631633
  O        -7.8327617619       -4.2408639433       -1.3478998974
  O         8.7080031685       -1.8981340602        5.2682089747
  O         9.3055832346       -0.8524313482       -2.9793982149
  O        -3.2487435663       -0.7467232970       -8.1286849406
  O         8.3319786234        0.4465396512       -6.9059725105
  O        -4.9613037602       -4.6190889224        9.1390849421
  O        -7.3381268563        0.3568636585        8.9189561879
  O        -6.5151185198        7.2388709978       -1.0076895501
  O        -0.1048376298       -5.7511213741        7.3027570260
  O        -6.3527372743        2.3674251671       -5.3115553360
  O        -1.7774130740        9.2296418550        5.5791915270
  O         8.4154404197       -3.9127212282       10.1550213281
  O        -8.1073900875       -5.1507659007        4.6768413658
  O         6.8214173456       -5.9788663486        3.3261880490
  O        -8.6674695953        0.8136742951       -8.1604230462
  O         3.6688259417       -8.3802671799        4.8836491450
  O        -7.7766445017       -1.8241144609       -3.8509604339
  O        -8.7065947070        8.3270444278        3.2958585878
  O        -3.0633961696        8.4445557076       -7.7445096062
  O        -6.7787329589        2.5301888646       10.4662545650
  O        -5.2430518726       -6.2741394256        5.5644003563
  O        -8.8678180166       -6.6286023544        6.7969702746
  O         0.3860472047        7.9461384736       -2.5148640755
  O         3.5877269293        3.7552631728       -6.0630984853
  O        -7.0880243154       -6.1109040173        2.4606777993
  O        -3.7957718645       -5.9737038196       -8.3871859439
  O         7.0948174629       -7.5740631374       -3.8519629086
  O        -7.0976245327       -3.2300397499        8.6473864259
  O         8.9874161220        7.3675664486        7.6986618805
  O        -3.9276605242        3.4703253816       -6.5267092309
  O         5.0344463830       -4.1643489237       -3.9673398960
  O        -6.9249434225        7.0966642598       -5.4979583652
  O        -5.7615892495        4.8607806040        9.7687277749
  O        -1.9869644678       10.8486407258        7.6068899796
  O         5.7739605636        3.9120557181        6.4901469831
  O         4.4461501749        5.0564054668        8.4461382461
  O         9.4734850992        2.8602778847        9.1754111805
  O        -2.4227579671       -5.0918800960        8.6152865712
  O        -7.6762830751        8.2694786220       -7.8343442215
  O         4.6637891350        1.3500205746        9.5434109961
  O         6.3170030165        9.7045858490        8.8700114218
  O        -0.0684920069        4.7479094697        9.8001131713
  O         6.1587778607       -6.0577378857        5.9477297803
  O         4.7897785882       -5.6965025955       -6.0148934627
  O        -3.2763057176        5.8608067578       -7.8230249406
  O         2.5868680365        9.2727807434        9.1126074813
  O         8.4799162970        4.3341923507       -7.9594672914
  O         0.8701433755        5.9410700151       -7.2362396438
  O        -8.6795921681       -0.8895192744       -6.2504369348
  O         9.2166332610        3.3317759617        4.3469176754
  O        -4.9498713239       -4.4115588769       -6.4539193957
  O         4.6872375829       -6.6990026993       -3.2846281185
  O        -8.3219301572        9.5526618177       -5.5920254516
  O        -1.8939371352       10.2673437648       10.3079163751
  O        -6.1700564174        8.6403310346        8.0804234621
  O         3.2330550077       -4.9512791833        9.8050833126
  O        -7.8549544164       -0.4697165327       -1.4642111679
  O        -6.1248887715       -3.7200338569        6.3206832315
  O         0.1869203923       -5.8203907037       -5.7291706632
  O        -6.9364246044       -2.7869562831       -6.1002934072
  O         6.5551470374        1.6461624756        7.7317677882
  O        -8.9980343089        1.6510287826       -5.7165513335
  O         4.2649256775       -3.2799446809       -7.7749170625
  O        -9.5006807334       -3.4403922955        0.6816270784
  O        -8.3115478528        6.1395028969        0.5178658202
  O         4.3767918882        5.9347079623        5.9017150924
  O        -6.6571487476       -8.8694256700       -1.4824569699
  O        -6.8379055295       -8.0962263905        7.8587689934
  O         4.3574386716        8.5376167484        5.5275427750
  O         6.5260836243       -1.6545859748       -7.5635044476
  O         3.3925700300        4.2675874506       -8.6452170201
  O        -1.1156071536        6.4843369107        8.2226430065
  O         7.0195594274       -4.7564130591        8.1570431331
  O        -5.4092662368        1.3914780164        7.2856089481
  O         9.7435288821        5.2443651883       -4.8456751212
  O        -5.7703817861       -4.3322705052        3.8559602154
  O        -7.4221593202       -8.6941722488        2.8370572451
  O         7.3019903229        1.8921741078        5.3397920201
  O         9.4828678481       -1.6505964017        2.5857676173
  O        -0.4722754050        7.9536302288       -7.9473137091
  O         7.1878049303       -7.3250596545        7.9496199093
  O        -7.6490676030        5.8159409289       -2.8493758395
  O         9.2068257150       -3.2813590409       -1.8247077088
  O         6.0179601221        7.4214295557       -3.1061532919
  O         9.2191993013       -4.9997573194       -6.8080463290
  O         5.9767973540       -2.7316741972        9.5488504564
  O         5.9502003854       -9.0715789225        6.3210500667
  O         8.9056514963        4.7453209931        0.3367546534
  O         8.2885937707       -2.5087254454        7.8312837444
  O        -4.8085691923       -0.5654790789        8.9839944278
  O         6.1982711839        3.6855672012       -6.7235078224
  O         6.4762613709       10.4134027997        1.3052915207
  O        -6.3681727374       10.1005557434       10.2191709459
  O         1.7702517688        8.8054692020       -6.9572059181
  O        -7.4813537479       -5.8094848936        8.9583998492
  O         7.1226415259       -0.6348745505        3.3907617383
  O         4.2542167427       -5.8909643714        4.2245872139
  O        -7.2226461475        6.2522869482        7.2175190952
  O        -7.9545639055        3.6371074177       -0.0028046347
  O         4.8541557530       -6.2675592057        8.2148923668
  O         9.3906462163       -5.7005883262       -0.7632847076
  O         9.1245348487       -6.4625644018        4.5059026353
  O         6.7590893970       -5.3034557913       -2.4009325730
  O         6.9301001202       -2.5489525692       -2.7845593244
  O        -0.3912837100       -7.7720454749        5.6863928126
  O         9.8399948564        7.3716168249       -6.3173433441
  O         7.1210614412        0.2944911553       10.0245224771
  O         0.6439871483       -8.7265090262       10.4458903107
  O        -2.6681990317       -5.5352985857       -6.0654480792
  O        -1.2366063294        9.8820771270       -6.4485166272
  O        -3.5739637681        5.9180770100        8.7797256790
  O        -6.9316608626       -5.2311143855       -3.6351099539
  O         7.4901094536        6.6469704257       -5.0152899700
  O         2.7884572108       -7.4786909189        9.6036749825
  O        -1.1136742879       -7.3231485060       -7.3594121178
  O         6.7106298312        9.6368064875       -5.4185586115
  O         5.7794225780        9.9395138039        3.7503118265
  O        -0.5999872821       -6.5309139678        9.7261970138
  O        -8.4426607847        8.8187933139        6.8145736284
  O        -0.7875720758       -1.7249023886       10.5752614460
  O        -8.4232970773       -7.4365112398        0.1606902790
  O        -5.5541558251        4.9146561131       -4.9345870079
  O         8.2378071917        3.7253088991        6.9325590925
  O        -5.3212634246        6.9449485228       -3.3571039193
  O        -0.1500530407       -3.9844945294        9.2823173214
  O         8.4561015689       -8.3368131676       -0.3700194962
  O         6.1904926014        9.0229711478       -0.8647271127
  O        -6.0979606243       10.4802026860       -4.1916728035
  O         8.9064465563        8.2931496034        5.1600187484
  O        -3.8640398626        8.1730565809        4.1980855638
  O        -4.1076084184        2.6482619453        5.2429703514
  O        -5.6758462267        9.8029844185       -6.6331364333
  O         8.9687967344       -8.2522267181       -5.4897376055
  O         7.4658656562        7.5366710562        9.9434120968
  O         2.1070267861       -7.7458830672       -6.1144831470
  O        -7.2531081908        8.5756523744       -3.1044879299
  O        -5.9565802074        0.2431490286       -8.1743276281
  O         2.0256297113       -6.4299843025        5.8709340684
  O         6.7276745109       -5.0127990887       -7.6885874736
  O        -8.2844504574        3.3990695361       -3.7132925832
  O        -4.9349234588       -7.5610529928        3.2426414437
  O         8.7016035068       -4.3110559850        2.9120253185
  O         3.9734092924        9.8114845475       -6.0759626614
  O        -7.9535717532       -7.0401650281       -5.6205823548
  O         3.2772212138        1.6850697153       -7.7236577587
  O         6.5695170463        6.2485688044        7.6740125254
  O         5.7095772278        0.8469774323       -7.3369551774
  O         2.3058118387       -5.2818591764       -7.3373636969
  O        10.3248810571        9.9703577840       -2.7630545757
  O        -8.6866557546        4.3958077093        2.4843169888
  O         4.9389317746       -6.7475124684       10.8748555195
  O        -6.6057477247        4.3631168380       -7.1562853228
  O         6.0074419383        9.3082785774       -7.8659610812
  O        -9.1555303371       -8.0117663300        8.9874717288
  O         4.1366786326       -0.9236975889       10.6680783850
  O        -8.0065736564       -3.4445421419        2.7231049401
  O        -3.6274570960       10.0953887971       -5.0959330858
  O         3.7161997443        6.9954356577       10.0647267158
  O        -6.2561721174       -1.1595481548        6.9074454924
  O        -5.0711673255       10.2465620975        5.1828483469
  O         7.6062413379        6.6881386835       -1.0656126569
  O        -6.2965899605        3.9165215576        6.2218386392
  O         0.3006963979        7.5318867058       -5.2133907234
  O         5.8254417706        5.3386667657       -8.7269288003
  O         5.4250824229        5.1663307339       -4.6178667566
  O         9.3047411966        4.8299987022       -2.2011863197
  O        -2.9395000543        7.0330328238        6.4110308378
  O        -1.5862562357       -7.5763993604       -4.7406001470
  O         1.2973616854       -1.7695925624        8.6009277769
  O         1.6465820672       -3.0242402961       10.8774481700
  O         8.3207174788       10.1591169948       10.5790828189
  O        -1.3241452524        4.1510281365       -7.2861332795
  O        -8.9439859587       -8.3564363883       -7.7502285466
  O        -2.9647468381       -7.7502291715        5.2358899895
  O        -7.8649892480        0.8117654693       -3.6981407291
  O         8.9948341018        6.0935560943        3.6534702820
  O        -4.3284567758       10.5968782406        8.6923423276
  O        -3.4863618815        3.6945637108       -9.0588378817
  O        -1.5468480024        7.0000922169        4.0552583943
  O         1.2584721265        3.4410820781       -7.4453895955
  O         8.4744438052        9.8162564563        7.2809863003
  O        -2.9423859243       -3.3941765589       10.6271621480
  O         1.1671149370        7.0790353915        9.1420973415
  O        -6.7069746377       -4.4389801263       -8.2830447933
  O        -8.4557175355       -2.3634451234        6.6040423238
  O        -6.2233759673        8.0951431888        5.5350024706
  O        -3.6347375264       -4.0209953955        5.4760200548
  O        -4.2675364722        3.7181715393        7.7382768618
  O        -8.3632312664        4.7916389602       10.3197313087
  O         7.5378069874       -4.2753504997       -4.7553820348
  O         8.6277240495       -6.6017910142       10.6351828886
  O         8.7534382530        5.2967538394        9.0993919852
  O        -5.9198956083       -7.8609267122        0.8281525296
  O        -8.5870288188        4.2213552229        7.4186184014
  O         6.1317762858       -7.6722806753       -1.1548724164
  O         6.5930597428       -7.5227011190       -6.5586907144
  O         8.8652059497       -6.7302957058        1.7367761843
  O         2.4338540337        7.2144140339        4.6006463861
  O        -9.4953628560       -5.5008309744       -4.2121163508
  O        -6.2267621911       -6.2885993073       -1.0826252813
  O         9.7298622324        7.4078560069       -3.6849722238
  O        -9.6350203013        1.7984985355        6.5803127537
  O         2.6720784227       -5.5219713000       -4.6595620686
  O        -9.5375737765       -3.1227479934       -5.3466762705
  O         9.3287891306        0.5676197169        4.2298665463
  O        -5.3718691920        7.5651967113       -8.1908963890
  O        -2.6804240662        8.4114296064        8.6396306037
  O        10.2402651762        7.9267925903       -1.1436298919
  O         1.2018869623       -8.1525796770        7.7662626264
  O        -7.8707383434       -7.3961718524       -3.1328887515
  O        -8.2354969512        5.3299038825        4.9237935926
  O        -1.1850598046        9.3889771589       -3.9382324589
  O        -4.8313165014       -7.0991748387       -6.0537194869
  O        -4.2917017137        7.1541700546       -5.6859971727
  O         8.1153646584        8.9316487214       -2.4535021404
  O         2.9161937858        7.5040110551        7.3641152040
 Si         3.0404358369       -6.8913337311        4.5642387480
 Si        -6.5640382692       -4.5543278979        9.4694473827
 Si        -4.0344096670        7.1930645738       -7.3316886056
 Si         6.2754725558        1.5848349894        9.3625639915
 Si        -9.4178597091       -4.1649995203       -0.7492263052
 Si        -9.2876790016       -5.6670146574        5.5954542889
 Si         9.1668750519        7.8426134424        3.6498168160
 Si        -8.0494502615        8.0771494838       -6.2629374399
 Si         3.9751279118       -6.3585886007        9.5893328074
 Si        -2.9768643875        4.2723712101       -7.6276535486
 Si        -8.8840484618       -8.3352095143       -6.1066735893
 Si         5.9603851602        6.7525718500       -4.5881375783
 Si         3.4203907518        7.2699954360        5.8143481505
 Si        -7.2701928477        0.8893489252       10.4611284747
 Si         8.2970812753       -5.0838792965       -8.1341224710
 Si         6.3187995806       -6.0339123515        7.5320624997
 Si        -7.3874964230       10.3009934338       -3.0059960984
 Si        -5.0781284171       -4.6262324953        5.3633772964
 Si         4.3268694154        5.4156503613        9.9940336825
 Si        -4.8024591151       -0.8091798334       10.6637546029
 Si        -7.0683252406        7.8392780086        6.8583421279
 Si         2.3510670969        9.9917455102       -5.8902662410
 Si        -5.5779023585        6.4970018742       -4.9139980587
 Si         5.2285612470       -2.1691834451       -8.5045650080
 Si         7.0103953193       -8.9389363644        7.5901818076
 Si        -7.2829434966       -4.7398315281        3.3517628244
 Si         5.1285190210        3.8281709987       -5.4752801789
 Si        -1.5965279524        9.0244080064       -7.7398561755
 Si        -8.2258264554       -2.1764501160       -5.3437653174
 Si         5.3782702769        5.3277110508        7.0627623669
 Si         4.3273039763       -5.5719804485       -4.4619455841
 Si         6.9444931734        2.7880515497        6.6708856097
 Si        -8.8697279729        4.8898192380       -3.4341103348
 Si         9.3179523612       -2.7392146512        6.4344084226
 Si        -6.6362041324       -4.9893442060       -2.0190288510
 Si        -2.2141221149       -2.1009853976       -8.0668026298
 Si        -6.7215734374        7.1919631100       -2.5653443858
 Si         9.4424214815        4.2312564281       10.1241215979
 Si        -8.1249069206       -7.0466597903        8.1379852427
 Si        -2.8386163886        9.9760852128        8.7477009340
 Si         0.5233767050       -2.5035314759        9.7905058643
 Si         8.6493118956       -0.9322778469        3.8701732179
 Si        -5.0317315070        2.8723975630        6.5338249419
 Si        -6.8576244066       -7.6374651170       -0.4626192362
 Si         2.9164737733       -3.9994698312       -8.2523032214
 Si        -5.9627133177       10.1394757832        8.6345489182
 Si        -8.4085009827       -0.5876881099       -2.9387892778
 Si         5.4833578726        9.0924317491       -6.3139031486
 Si        -8.0997104340       -6.2723165072       -4.1160861180
 Si        -7.5164337967        9.0479564230        2.5279566840
 Si        -5.3763955565        8.8569167246        4.4266187103
 Si         0.3306152328        8.6506794365       -3.9567220680
 Si         6.2242292644       -6.8424973099       -2.6146022941
 Si         7.9323644395        6.6460249221        8.6196428171
 Si         9.0962540782       -4.5282911921       -5.2160276439
 Si         7.4102070565       -3.3805620932        8.8475521831
 Si        -1.9977726330       10.2958239395       -5.0326415621
 Si        -4.5407528976       -7.6446431965        4.8162077879
 Si        -0.6961137993       -7.8294765024       10.5655104421
 Si        -6.9151824034        4.1320859026       -8.7513639877
 Si         1.9076824952       -6.1390855726       -5.9700473398
 Si        -6.2160503439        8.9873572043       -8.0158151621
 Si         9.1014219950        6.7036969997       -4.9938980667
 Si        -7.5842058016        4.9193394996        6.3616869048
 Si        -0.8369018893       -5.2845098382        8.6828059077
 Si         8.9348283083        1.8258783995        5.0243974014
 Si         9.3929450772       -7.0566431714        0.1398831561
 Si        -5.1631693450       10.7082688491       -5.4385745047
 Si         0.2490120677        5.8431876475        8.6246113058
 Si        -2.6113893574        6.9299459189        7.9644161992
 Si         6.7955450544        4.1336623685       -8.1735788430
 Si         5.7845991819       -6.2850411845       -7.1944269902
 Si         2.8972099443        3.2672517042       -7.4410518428
 Si        -1.2866891624       -6.4519848451       -6.0160533419
 Si        -5.5794371291        3.7294557343       -6.0995220158
 Si         6.9453161720        7.9621477892       -1.8551661552
 Si         8.4584026911       -5.9098207893        3.0635357374
 Si         7.0643039161        9.0945668673       10.2668956228
 Si        -5.9738786640       -3.3865208512       -7.2518022288
 Si        -9.3911286960        0.4812789365       -6.7373947270
 Si         0.6999936199       -7.0596235419        6.6844574459
 Si         8.3691143871       -1.9235646772       -2.1699164176
 Si        -4.3321088640        4.5076101871        9.1158830567
 Si         4.3644268455        0.7051160378       -8.3311541928
 Si         0.6903043790        7.4831586186       -6.7909713613
 Si        -6.9465887436       -2.6273692418        7.1643333379
 Si        -2.4767664222        7.8187489778        5.0619549379
 Si         4.9260723101        9.9799384449        5.1273996300
 Si        -4.1368011143       -5.7863710472       -6.7151943269
 Si         7.3680858504       -8.2338263712       -5.2852891611
 Si         1.8407814621       10.7045154828        9.2299267212
 Si         6.8760128194       10.4784105940       -0.2764033277
 Si         7.0132197870       -0.0990933532       -7.7642478824
 Si         0.2152588034        4.5845983755       -7.9104286657
 Si        -9.5605939072       -3.2444310109        2.2567443713
 Si        -3.5405330313       -4.7377163893        9.8927947637
 Si        -7.8513145316        2.0920573093       -4.6217838132
 Si        -7.9150506884        7.5321004003       -0.1893774728
 Si        -6.3420103097       -7.5545080557        2.3556348337
 Si         6.4851421108        9.1637950181        2.4807018927
 Si        -1.8150781167       10.8416246755        6.0099685036
 Si         8.2037342503        5.1634138747       -1.0550616608
 Si         5.8096914363       -5.4467975210        4.4837533947
 Si         9.4039121244       -8.0121429653       10.4336406376
 Si        -9.7552474449        3.0930074251        7.5806649742
 Si        -9.4117465593        4.7091384831        3.8621534980
 Si        -6.0170002785        0.0793569947        7.9894534850
 Si         9.3249420178        8.5793865538        6.6640640692
 Si         6.6265280585       -4.0150281943       -3.4770711547
 Si         9.7042703833        8.5293099000       -2.5535664468
 Si        -8.8248156450        4.6221913178        0.8221087003
 Si         2.6492117793        7.6798192963        8.9165009040
 Se        -2.4739200227       -0.5152366989        3.0885998841
 Se        -1.5142623920       -2.6556660990       -5.9531734655
 Se        -4.7242046943       -3.5489186168       -1.9633568674
 Se        -2.0010256403       -4.6489782478        1.7904021967
 Se         1.6199758801       -4.5319814684       -1.0071065961
 Se         1.7492845488       -7.0706878123        2.6140468826
 Se        -6.3240087528       -0.5397682187        1.5122206096
 Se        -3.8997354945        0.3330227318       -5.0159862848
 Se        -4.6969777371        2.1617593212       -0.6139301957
 Se        -1.6545871518        0.7749939124        7.6958200740
 Se         3.9221037012        0.0258971058       -1.3515326526
 Se        -2.0743589992       -1.2207018624       -1.1834879778
 Se         1.2512309692       -0.9984851221        0.9489186117
 Se         0.6955746588       -3.1040276707        5.0006806594
 Se         5.2665589237       -3.8856845280        0.4094139160
 Se         5.8085030685       -3.0990095443        4.4987128203
 Se        -2.5458187024        5.4804593343       -2.5886707868
 Se        -4.2242320178        5.6026075366        1.8303242014
 Se        -0.7274071666        3.3569575071        4.1053244547
 Se         0.2187249040        1.6975888721       -3.3997897816
 Se        -0.9313541604        3.0118828206        0.0390646094
 Se         0.7157186155        6.3805130845        1.5142351636
 Se         1.3959593243        4.7324221753        7.0007895852
 Se         5.1522004375        1.8716763540       -4.2406525409
 Se         3.3252865135        3.1515813372        1.9686919389
 Se         1.6634708840        0.8614440875        5.2323379283
 Se         3.9004783208        0.0798805000        6.0140556350
 Se         7.9476460508       -0.5717197561       -0.3514839726
 Se        -2.1948898863        9.3197994247        0.4288745007
 Se         2.7957457993        9.5912618902        0.1389872960
 Se         2.4815141096        5.0775415304       -2.3577154032
 Se         5.4920265372        7.2041866358        2.1508037068
 Se         6.3046939631        3.9031697752       -1.4538680533
 Cd        -6.3473434654       -1.9050093985       -0.6909777025
 Cd        -3.8908074549       -2.2643372946       -4.3348748408
 Cd        -2.9422202384       -2.9910648387        3.6569781736
 Cd        -2.9333807992        0.6517131578        5.3760160394
 Cd         3.4100981815       -2.5330629831       -1.0755165329
 Cd        -0.3657000824       -3.1715347529        0.2579929073
 Cd        -7.3815927722        1.6057864074       -0.0333137233
 Cd         0.7900277859        3.5024107234        1.9219260973
 Cd        -3.7292582121        0.0241145424        0.6540875900
 Cd        -0.0918911722        2.5594388614        6.6333030042
 Cd        -1.2784538366        0.0739058817       -4.9544077098
 Cd         5.0475688859        0.3410804278        3.6181771052
 Cd        -0.1228458413       -5.2219936410        3.3386352511
 Cd         3.3723948707       -2.4381438024        5.1831114187
 Cd         3.4979468118        0.5566917455        1.2989278802
 Cd         3.0336652750       -5.2036675136        1.1157690510
 Cd        -1.9476975459        7.8845101882       -1.7015964068
 Cd        -3.5516345768        4.5035699692       -0.4726249990
 Cd        -3.1744603245        4.0846491306        3.5100752290
 Cd        -4.0409585893        1.2279709656       -2.7572742629
 Cd        -0.1015207300        4.4242774845       -2.0487884398
 Cd        -0.1368213198        0.6352247190       -0.8331020446
 Cd         0.1785176129       -1.0298532842        6.9300253708
 Cd         2.7976239625        1.6995562807       -3.2302386427
 Cd         6.3171969173        1.1122515452       -1.5473313594
 Cd         0.5228236571        5.9101876665        4.3945566509
 Cd         5.9913305421       -1.6891688775        1.6565317185
 Cd         0.2232158411       -0.9696594132        3.3626192906
 Cd         2.1787862420        7.1293388851       -0.9612640686
 Cd         0.2584351467        9.9307412745        0.2008189695
 Cd         2.9442966518        7.7810606954        2.3996180793
 Cd        -1.9445304068        7.0764596849        1.7193430884
 Cd         4.1066887183        4.2789083405       -0.2339990465
