402
 i =     5200, time =    10400.000, E =     -5882.3627152774
  O         6.5273609184        1.1203976742       10.8699084580
  O        -5.5957406585       -3.9387384456       -7.3398744653
  O         9.1828682318       -6.2409411571        6.8537975694
  O        -7.7929339100        6.9838197034        1.4375660026
  O         1.6284745851        7.8042680327       -3.9345362037
  O         8.0557948892        6.5421309651        3.1522648971
  O        -6.0854887372        6.9078870801        3.6347851940
  O         4.9463502707        5.7631395723       -5.2044261877
  O        -8.0262625815       -5.9007054486       -0.4445159219
  O         8.5402613234       -3.6635455921        6.0954484591
  O         9.2491283166       -2.7434518704       -2.4166187123
  O        -3.2474187809       -2.7319627057       -7.7423117258
  O         8.3263875316       -1.5219317634       -6.3354184102
  O        -4.9167432878       -6.7779648721        9.7928595051
  O        -7.3533230709       -1.5981769163        9.4465107484
  O        -6.5857130696        5.2716652689       -0.2525758485
  O        -0.1268999450       -7.7900947222        7.7416106308
  O        -6.4561502884        0.6072729635       -4.5848242134
  O        -1.8631181081        7.3143922815        6.2004385595
  O         8.5241989640       -5.6252538204       10.8945210704
  O        -7.9761334883       -7.3062855824        5.3716766280
  O         6.6568433706       -8.0048538110        4.0513030704
  O        -8.6432046561       -1.2607881650       -7.6403163782
  O         3.6949075242      -10.4363362781        5.1406774582
  O        -7.7033345961       -3.4788606081       -3.1908763793
  O        -8.7483441889        6.4490612077        3.7967861421
  O        -3.3179969059        6.7060207532       -7.2083918322
  O        -7.0430487551        0.6201598791       10.5952082191
  O        -5.0699892148       -8.0957844356        6.2903097740
  O        -8.8433743617       -8.4745879294        7.5325938323
  O         0.5502193125        6.1481357249       -2.0072679805
  O         3.3986272017        2.0393806425       -5.4076718753
  O        -7.0930302358       -7.8944362999        3.0393695381
  O        -3.6415074771       -7.9223181761       -7.7360412246
  O         6.8531041726       -9.6369568642       -3.0988809751
  O        -7.0278617708       -4.9276951029        9.3928649981
  O         8.7092436859        5.4230481710        7.9821365085
  O        -4.1427067105        1.4880592237       -5.9188727372
  O         4.7587143573       -5.9229157847       -3.1486080904
  O        -7.1613092165        5.2722734001       -4.9757089049
  O        -5.9219029138        2.9007926653       10.2994597532
  O        -2.0077579473        8.8688558880        8.2173898889
  O         5.5432352495        1.9071092541        7.0653278784
  O         4.4215289499        3.0342358115        9.0765863024
  O         9.2552885512        1.1592968562        9.7430174002
  O        -2.4622916749       -7.1781236778        9.1944571141
  O        -7.7514709010        6.8376980733       -7.0119073224
  O         4.6414456930       -0.5316136261       10.2562388999
  O         6.1818162930        7.9554298806        9.3148669195
  O        -0.0602644354        2.8954140170       10.6169642646
  O         6.2250041195       -7.7316436022        6.6846696023
  O         4.7074350870       -7.5302321389       -5.3056366270
  O        -3.3601736368        4.0135026499       -6.8041205472
  O         2.6724551039        7.4138533420        9.7378482534
  O         8.2662934520        2.3679850222       -7.4611651150
  O         0.5858503561        4.2567573186       -6.5298924978
  O        -8.8288414530       -2.8138882435       -5.5208591867
  O         9.3020860982        1.4896485006        5.1330515075
  O        -4.7985431140       -6.2878904568       -5.9585264951
  O         4.6467653065       -8.5670906500       -2.8256335511
  O        -8.4309463598        7.7769280184       -4.7885634439
  O        -1.9082228911        8.4983362598       10.9144712022
  O        -6.2245171258        6.7073476586        8.6420948505
  O         3.2777251151       -6.9057386387       10.5008523448
  O        -8.1449536019       -2.3965051642       -0.6621546505
  O        -6.1418249245       -5.8069061547        7.0918868322
  O         0.2600027407       -7.4223174425       -5.0196154063
  O        -7.0335038820       -4.8100141480       -5.4038320292
  O         6.6347126810       -0.1157705139        8.5398879081
  O        -8.9556132493       -0.1636120234       -5.2103107779
  O         4.3460772646       -5.2030919254       -7.2489443536
  O        -9.6285610927       -4.9523364472        1.3479113856
  O        -8.3307827231        4.3067078462        1.5348154124
  O         4.6033990605        4.1696479353        6.5593166776
  O        -6.5534206153      -10.7335115758       -0.9387977193
  O        -6.8721711600       -9.9890775518        8.6347947581
  O         4.2690002582        6.6824318834        6.1532577461
  O         6.5317851944       -3.4960822220       -6.8051061758
  O         3.2010431881        2.4391236538       -8.0583730344
  O        -1.2211014833        4.4927782627        8.8580309881
  O         6.8894337171       -6.5438044840        8.9638278383
  O        -5.4426389027       -0.5845103612        7.7760722805
  O         9.7189533955        3.3904893393       -4.0619799430
  O        -5.6970959190       -6.1251653238        4.5380240726
  O        -7.5871092185      -10.4620738297        3.4736507346
  O         7.2117268136        0.0789187443        5.9742328447
  O         9.4221078375       -3.7030170010        3.7018784824
  O        -0.7267823875        6.2694407478       -7.3548767410
  O         7.2766176172       -9.1354983777        8.4798595656
  O        -7.8699619539        4.0177972819       -2.1540028426
  O         9.0299141775       -5.1532502582       -1.1550582344
  O         5.8915299563        5.5795314869       -2.5775551839
  O         9.0612478668       -6.8458133947       -6.0010515469
  O         6.1404289839       -4.4973253156       10.2337963144
  O         6.0042086294      -10.8339750646        6.7284063071
  O         8.7580989835        3.2213929544        1.1158145785
  O         8.4228566725       -4.3297514361        8.6359868242
  O        -4.7971538280       -2.4878154745        9.5625595828
  O         6.0381828314        2.0214395007       -6.0590953031
  O         6.2870002594        8.2149395094        1.8562180271
  O        -6.1383754704        8.2596439262       10.9036020300
  O         1.5601533334        6.9485104728       -6.3049643827
  O        -7.5855175149       -7.6168834595        9.6193730596
  O         6.9623156840       -2.5962755037        4.0961182413
  O         4.1964960813       -7.7515469667        5.0545775739
  O        -7.0836458697        4.3645834839        7.7230135915
  O        -8.3926397172        1.6695921320        0.5755538370
  O         4.9154207540       -8.2899505524        8.9829485432
  O         9.2752066821       -7.4912731104        0.2649718255
  O         9.1197452197       -8.3576566222        5.1362747210
  O         6.6915451124       -7.2111096803       -1.9570215494
  O         6.8844404573       -4.3651331940       -2.2834758424
  O        -0.4520733806       -9.8712390507        6.0590570861
  O         9.6222556694        5.5890964492       -5.6563926891
  O         7.1649816852       -1.5317565539       10.6726381451
  O         0.6803834984      -10.7070651028       10.9793633525
  O        -2.4568754389       -7.4164003141       -5.4917995920
  O        -1.7077414373        8.2391765752       -5.8637424170
  O        -3.8567925503        4.2297382911        9.5279904452
  O        -7.2728790899       -7.0594706192       -2.8948762842
  O         7.4231217410        4.8014436642       -4.5341294376
  O         2.9534689140       -9.4662593293       10.3328712662
  O        -0.7635788880       -8.9965929733       -6.7701343673
  O         6.4360551240        7.9507709690       -5.0842738646
  O         5.8852856088        7.7360080831        4.2895744273
  O        -0.6609774785       -8.5251881431       10.0911758813
  O        -8.5484949036        6.6293754172        7.2993668565
  O        -0.7107144035       -3.7979038853       10.9385988493
  O        -8.6304323347       -9.6054493294        0.7992690518
  O        -5.7692768574        3.0610971921       -4.5219088801
  O         8.1523571864        1.9827938051        7.5893549618
  O        -5.4279397731        4.8960309660       -2.7027412936
  O        -0.0079107814       -5.9445283882        9.5030924587
  O         8.1758097133      -10.1169194979        0.3653425774
  O         5.9925282806        7.1276853301       -0.3848592230
  O        -6.1273690686        8.8127907050       -3.5627225645
  O         8.6939098601        6.5892807121        5.6267311286
  O        -3.8133451696        6.4313864788        4.8820446758
  O        -4.2627595943        0.7069132485        5.7682700038
  O        -5.4596744464        7.9153059740       -5.9756927736
  O         8.7718478942      -10.2225919883       -4.6348732963
  O         7.2764571072        5.8594552777       10.2664188782
  O         1.8305226386       -9.5346967470       -5.5232807300
  O        -7.1699497664        6.6972318373       -2.4130304165
  O        -5.9636649586       -1.5351154274       -7.6916234413
  O         1.9893958415       -8.7684888931        6.2780967613
  O         6.6263051873       -6.6825875005       -6.9553079111
  O        -8.4137712502        1.5462042066       -2.9870857837
  O        -5.1848326912       -9.2821259887        3.9368317261
  O         8.7599692860       -6.2274702985        3.5264980458
  O         3.8121392321        8.1676893367       -5.6708808628
  O        -8.2380580984       -8.7974320730       -4.9664338946
  O         3.2330638209       -0.1217474052       -7.0528853256
  O         6.4898854488        4.2738628335        8.2154436118
  O         5.7101789143       -0.9263079335       -6.7033464977
  O         2.5105879611       -6.9765074856       -6.3648087417
  O        10.2525479297        8.1056562227       -1.9345510342
  O        -9.0022456873        2.4259048285        3.0432291418
  O         4.8772354132       -8.6539016391       11.7046774242
  O        -6.6788665963        1.9715110574       -6.6690940164
  O         5.7152587046        7.1424890467       -7.3895342343
  O        -9.1903675555       -9.7699590235        9.8307044167
  O         4.3066852356       -2.7578250780       11.5976967707
  O        -7.9997677838       -5.3850004406        3.4368875507
  O        -3.6884481962        8.5600362200       -3.9821488883
  O         3.6821493078        5.0398545133       10.5902947070
  O        -6.1014636116       -3.1418890459        7.5631360289
  O        -5.3196438534        8.4660823345        5.8516061248
  O         7.4849847468        4.7893586897       -0.6032478041
  O        -6.3751174234        1.8103576381        6.7413622265
  O        -0.0757225075        5.8792238477       -4.6940375896
  O         5.6716911381        3.5258869219       -8.0505242830
  O         5.2328675954        3.3950754706       -3.9581950697
  O         9.1540848483        2.8708778417       -1.5061792145
  O        -3.1027167399        5.1546015480        7.0900864645
  O        -1.3263489610       -9.3421729653       -4.1777879366
  O         1.4022216113       -3.5433049943        9.3237952943
  O         1.5575705491       -4.9732275719       11.5202676402
  O         8.0800739625        8.4595680787       11.0523779929
  O        -1.4991177987        2.3522628448       -6.5858253052
  O        -9.2443738588      -10.1346536092       -6.9526190830
  O        -3.1354833678       -9.7189860601        5.7442914173
  O        -7.9690165895       -0.9812898930       -2.8993451831
  O         9.0229578371        4.2424127756        4.2654865881
  O        -4.3729299593        8.6027745923        9.2417199891
  O        -3.4178835440        1.9412839948       -8.4392690164
  O        -1.4551233764        5.1341660108        4.8723496819
  O         1.0885814691        1.5813342620       -6.6801513616
  O         8.3779736611        8.0281253745        7.7429091618
  O        -2.8491297199       -5.2885334800       10.8921450718
  O         1.0566153439        5.2736763733        9.9679891766
  O        -6.6570234596       -6.2427528025       -7.6918017139
  O        -8.4787297959       -4.3546738096        7.3763958884
  O        -6.1654171467        6.0500614690        6.1078690311
  O        -3.6177789841       -5.7732869181        6.0758739889
  O        -4.2497608475        1.6884795634        8.4425713721
  O        -8.5683395537        2.7901446513       11.1026103588
  O         7.4633619934       -6.1264278901       -4.1831157811
  O         8.5972411241       -8.2183114578       11.1527682138
  O         8.7126742296        3.7234123140        9.8398424389
  O        -6.0566170440       -9.7209366494        1.4072274436
  O        -8.5410759938        2.1621446752        7.9332962553
  O         5.9135903346       -9.6351597409       -0.5760449222
  O         6.7332069537       -8.9366962270       -5.7068977055
  O         8.9046906553       -8.6975867347        2.5908943764
  O         2.3819371524        5.0683590709        5.2921289022
  O        -9.7367086088       -7.4532869354       -3.4013699306
  O        -6.6360952597       -8.0773167886       -0.5090529575
  O         9.6349853149        5.6950712201       -3.1162929472
  O        -9.8603525196       -0.1111962734        7.3306508725
  O         2.6099513735       -7.5149464324       -3.9359405414
  O        -9.5065776509       -5.0023217387       -4.3376163410
  O         9.1401045672       -1.3647782156        5.0393972562
  O        -5.5571869027        5.7485225220       -7.5674779032
  O        -2.7357481460        6.6470424110        9.3094328547
  O        10.2314458152        5.9016449293       -0.5365471648
  O         0.9211954802      -10.2397804338        8.4062097775
  O        -8.0551489729       -9.4011324670       -2.4322625566
  O        -8.2325299411        3.3214503232        5.4260583917
  O        -1.1501962967        7.6863321070       -3.2455590593
  O        -4.8432404097       -8.8995691086       -5.4055749784
  O        -4.5748469168        5.4175697978       -5.0818939561
  O         7.9871490311        7.0287817664       -1.7491457417
  O         2.8561492328        5.5426675038        7.9834656365
 Si         3.0604113949       -8.9422266434        4.9920919022
 Si        -6.5804940246       -6.3904945429       10.0670639482
 Si        -4.2053865235        5.3901452486       -6.6773451162
 Si         6.2264889931       -0.2445820417       10.0829205351
 Si        -9.6491607498       -5.9746480493        0.0630810263
 Si        -9.3123630001       -7.5542608264        6.2466004168
 Si         9.1214419613        5.9475344593        4.1846956653
 Si        -8.3060612045        6.3731978260       -5.5778369936
 Si         4.0776588433       -8.3029296602       10.3321756549
 Si        -3.1128726044        2.3858065128       -6.9029934518
 Si        -9.1343289300      -10.1873272052       -5.3684748687
 Si         5.8600635575        4.9376933214       -4.1288341370
 Si         3.4813769944        5.3452934445        6.4300453933
 Si        -7.2713161580       -0.9571961412       10.9927198154
 Si         8.2343299949       -6.8762572567       -7.4326375375
 Si         6.3763068641       -7.8376477806        8.2953085834
 Si        -7.3670087608        8.4103751794       -2.3546984941
 Si        -5.0366366769       -6.3842503137        6.0123768142
 Si         4.2383425807        3.5206067566       10.6172884130
 Si        -4.8760869975       -2.7343572306       11.1948351185
 Si        -7.0711131876        5.9734730993        7.4344041507
 Si         2.1999267838        8.1964454023       -5.3915927403
 Si        -5.8244212528        4.6505027040       -4.2864924852
 Si         5.3652958440       -4.0439621082       -7.7594485875
 Si         6.9039862476      -10.7116519961        8.0137451661
 Si        -7.2024651323       -6.6291160164        4.1112456524
 Si         5.0112284001        2.0405131416       -4.8070637649
 Si        -1.9130940155        7.3324932667       -7.1811039462
 Si        -8.1964125931       -4.0469565760       -4.5651283896
 Si         5.2940364821        3.3809961511        7.7234632089
 Si         4.1803072436       -7.3534084693       -3.7845222721
 Si         6.8532088569        0.9607874217        7.3177379626
 Si        -9.0116645422        3.0027567509       -2.5809371306
 Si         9.2734452947       -4.6024945321        7.1926779366
 Si        -6.9146328298       -6.7189610912       -1.3014305338
 Si        -2.1381680807       -4.0221226057       -7.6375954170
 Si        -6.7812627778        5.2815333638       -1.8665507993
 Si         9.3244793530        2.5342687377       10.7029920769
 Si        -8.1453934630       -8.9561865307        8.8966722008
 Si        -2.8880771106        8.1918944469        9.3199114918
 Si         0.5773749663       -4.5261411521       10.2689098591
 Si         8.4419752009       -2.8340399892        4.6726165021
 Si        -5.0569951486        0.9504921121        7.1451040919
 Si        -7.0966495561       -9.5406287010        0.0998372954
 Si         2.8609686710       -5.9935158119       -7.5963572926
 Si        -5.9673038165        8.1914430541        9.3329498908
 Si        -8.5763711442       -2.3818821013       -2.2227508221
 Si         5.1401077932        7.2856083380       -5.8465677230
 Si        -8.2969507317       -8.2273491510       -3.4253785069
 Si        -7.5731016654        7.3325644939        3.0546443055
 Si        -5.3009895186        7.0100758808        5.1336106096
 Si         0.2788493356        6.8375186607       -3.3989096913
 Si         6.0670459637       -8.7629316279       -2.0156919908
 Si         7.7468079360        4.7635095644        9.1108452998
 Si         9.0837940896       -6.3842816170       -4.4806970306
 Si         7.5063024282       -5.1814487174        9.6225036454
 Si        -2.0746182348        8.5710182684       -4.2364611499
 Si        -4.7492637595       -9.4792999560        5.4372649433
 Si        -0.5762182121       -9.6633376693       11.1736246053
 Si        -7.0704950086        2.1091739752       -8.2774863654
 Si         1.8075589084       -7.9281260263       -5.2463691363
 Si        -6.2294886382        7.2539288595       -7.2298519236
 Si         9.0098326681        4.8527289080       -4.3205868719
 Si        -7.5344257002        2.9833201545        6.8749708870
 Si        -0.7720621661       -7.2438185930        9.1042130421
 Si         8.8436680383       -0.0100214493        5.7575087238
 Si         9.2460065828       -9.0206855526        0.9779013100
 Si        -5.1081850123        8.9988713683       -4.7534874127
 Si         0.2066152997        3.9494715376        9.4230170886
 Si        -2.7525108845        5.0896292493        8.6906292333
 Si         6.6718747089        2.3214629062       -7.4912615762
 Si         5.7417022535       -7.9727510320       -6.4567428290
 Si         2.8099980925        1.4912198624       -6.7883679243
 Si        -1.0809005063       -8.2532926317       -5.3579587686
 Si        -5.7015630613        1.7532686618       -5.4907761419
 Si         6.7693447073        6.0759111574       -1.3466434828
 Si         8.3600423271       -7.8000160885        3.8394838627
 Si         6.8790765536        7.3626066295       10.7840297872
 Si        -5.9676096821       -5.3245490148       -6.5506228169
 Si        -9.3885422189       -1.4598905796       -6.1707535577
 Si         0.6501584951       -9.1592730016        7.1136129546
 Si         8.2731404283       -3.7962621020       -1.5730238640
 Si        -4.4338403450        2.6066395381        9.7906191188
 Si         4.3538575425       -1.0742493911       -7.6537413388
 Si         0.3907910237        5.7729728166       -6.2198665556
 Si        -6.9373266415       -4.5635028126        7.7564850771
 Si        -2.5514424983        5.9198230915        5.7442058972
 Si         4.9957829786        8.0045331322        5.6380224844
 Si        -3.9811668127       -7.6620387377       -6.1358852254
 Si         7.1963111902      -10.0740626172       -4.6236976687
 Si         1.8608709186        8.8457870893        9.7832075636
 Si         6.6563886829        8.5265607330        0.2620934924
 Si         6.9828448657       -1.8742207375       -7.1208216546
 Si        -0.0103277495        2.8460005314       -7.1073254366
 Si        -9.5292680276       -5.0945496775        2.9809572674
 Si        -3.4526894460       -6.8080180244       10.3625730136
 Si        -7.9753376280        0.2897181021       -3.9197623657
 Si        -7.9822161362        5.5767237878        0.5646736965
 Si        -6.5043957118       -9.3577100325        2.9618147703
 Si         6.3987426954        7.0186423677        2.9500403547
 Si        -1.9289976577        8.8735143010        6.4802960535
 Si         8.0778442590        3.2493853477       -0.3900881519
 Si         5.7527641232       -7.2356179552        5.2351006953
 Si         9.1854727162       -9.7221510467       11.1083780331
 Si        -9.8953254878        1.2841421397        8.1438836231
 Si        -9.5513028362        2.8675078495        4.5315107274
 Si        -5.9753814182       -1.8717547130        8.5745083207
 Si         9.1774277682        6.7169223442        7.1543502834
 Si         6.4591899468       -5.8695963511       -2.8903356123
 Si         9.5681663575        6.6631701359       -1.8244693710
 Si        -9.0141842330        2.8569580280        1.4970230931
 Si         2.5546991486        5.8426001601        9.4898099242
 Se        -2.3772318625       -2.3583460236        3.6847627176
 Se        -1.5826774798       -4.4246343659       -5.4998971306
 Se        -5.0081483566       -5.5814952512       -0.9567646149
 Se        -1.5864666204       -6.3071336783        2.3447482812
 Se         1.4538635294       -5.9934829069       -0.5682381614
 Se         1.7727846481       -8.6537075209        3.1572466665
 Se        -6.4157627761       -2.2183341537        2.3606798837
 Se        -3.7573291685       -1.8731801079       -4.4371971964
 Se        -5.0463627221        0.3238748010       -0.0776068296
 Se        -1.7985162707       -1.0985366194        8.4558015847
 Se         3.7552586255       -2.0689885005       -1.0762420266
 Se        -2.1877644896       -2.9949593664       -0.6004740147
 Se         1.2207671029       -2.4149690389        1.4313030727
 Se         0.6518009363       -4.6446130318        5.6436868507
 Se         5.1254115580       -5.8416291489        0.9476537484
 Se         5.6881200849       -4.9728859648        5.0923293690
 Se        -2.2277724606        3.5854307678       -2.0189378207
 Se        -4.1692427111        3.7118882991        2.3974235119
 Se        -0.9192363224        1.4217786849        5.0075179216
 Se         0.2214219971       -0.4551414963       -3.2375457927
 Se        -1.3364422520        0.6800504699        1.1446335098
 Se         0.8094161052        4.0952182457        2.0632517091
 Se         1.2372828484        2.7535311389        7.7875628962
 Se         5.1606906469        0.0842293675       -3.7253246585
 Se         3.4828583887        1.0371292619        2.8347674000
 Se         1.6363681146       -0.7286028808        5.9790637745
 Se         3.6967204815       -1.7582919382        6.4731963413
 Se         7.8526472244       -2.3888210475        0.2993369660
 Se        -2.0268195545        7.3224882798        1.3062712957
 Se         2.8836185309        7.3982208490        0.6358997558
 Se         2.3511911989        2.9162532833       -1.5096452967
 Se         5.5729020632        4.9973977463        2.4676463634
 Se         6.2208243817        1.8304393202       -0.6079052991
 Cd        -6.5591421229       -3.7120416074        0.2967903663
 Cd        -3.8506951867       -3.8825628859       -2.7311563828
 Cd        -2.8640378562       -4.8701851024        4.1958121976
 Cd        -2.7254290685       -0.9950795208        5.9247269041
 Cd         3.6702997704       -4.5787425815       -0.9188004194
 Cd        -0.3700761514       -4.5733674586        0.9495126129
 Cd        -7.8079493864       -0.3760677275        1.0133569870
 Cd         0.9824863921        1.3766356400        2.6855063565
 Cd        -3.6931498574       -1.6428989848        1.2226734485
 Cd        -0.5163970779        1.0085174139        7.8621697887
 Cd        -1.0281258557       -2.0946493125       -4.8426534262
 Cd         5.1965692468       -1.2501418761        4.2610600041
 Cd         0.4421002776       -6.6472026359        3.8901416350
 Cd         3.3060998199       -4.3351232039        5.5379053787
 Cd         3.8388332455       -1.5553756786        1.7461808427
 Cd         2.7475245168       -6.8418467164        1.5874626805
 Cd        -1.8551549917        5.9964698062       -1.0228554168
 Cd        -3.4797848939        2.4816823088        0.1941108865
 Cd        -3.2422196358        2.1123644647        4.1739839963
 Cd        -4.5486121233       -0.5912746739       -2.4136058573
 Cd        -0.2056908071        2.6032779002       -0.5048818975
 Cd        -0.3650613897       -1.1388121138       -0.6329969826
 Cd         0.3310526716       -2.4376476210        7.8109990005
 Cd         2.6258422584       -0.4838057324       -3.4709982718
 Cd         6.2706007972       -0.7682462995       -0.8864483475
 Cd         0.4095930070        3.9691749102        5.2297198274
 Cd         5.9236639096       -3.5828317707        2.0996903647
 Cd         0.3001689848       -2.4168048522        3.9335856422
 Cd         2.5270719984        5.4791495630       -0.9778175254
 Cd         0.4060497440        7.5842343303        0.8065986210
 Cd         3.0395248395        5.4797993649        2.9888148778
 Cd        -1.7823616391        5.0399122084        2.5411959454
 Cd         3.9119242735        2.4529660985        0.5819709509
