402
 i =    10000, time =    20000.000, E =     -5882.4055056894
  O         6.5570223639        3.3268406054        9.8464551621
  O        -5.5164332610       -2.2258280510       -8.1630154414
  O         9.2094505296       -4.3555059753        6.3468360468
  O        -7.7360112032        8.7853800228        0.9006352410
  O         1.6841121275        9.7409692732       -4.5932913596
  O         7.9248306279        8.4222770484        2.7450683249
  O        -6.0982982749        8.8258242589        2.9750175384
  O         5.3059563619        7.7974830645       -5.9660961964
  O        -7.9749456419       -4.1516952833       -1.3412461663
  O         8.7376361754       -1.7845025362        5.0965510132
  O         9.3541733563       -0.6752609582       -2.9546527930
  O        -3.3831555299       -0.8619976688       -8.3973310265
  O         8.4267827347        0.5285792403       -6.9351728609
  O        -5.0940915395       -4.5902245162        9.2649898045
  O        -7.3673049885        0.4429636238        8.8278238281
  O        -6.4080162532        7.5309384276       -1.0493020289
  O        -0.1853848933       -5.6176069680        6.9984217170
  O        -6.1940884909        2.5180180437       -5.1739860138
  O        -1.9150698682        9.3365729411        5.3107287630
  O         8.4612819434       -3.7214622037        9.8826264941
  O        -8.1332605538       -4.9719174836        4.8968280076
  O         6.6872163109       -5.5997493665        3.1719737108
  O        -8.6546913172        0.6797070871       -8.3002127467
  O         3.7543474557       -8.1528589545        4.7248949076
  O        -7.8558659164       -1.6642569612       -3.8088541068
  O        -8.8704841814        8.4192866196        3.2283186488
  O        -2.9625736994        8.1751472410       -8.1065254193
  O        -7.2105642253        2.5492353157       10.3628391737
  O        -5.3202120076       -6.2030518974        5.5770441449
  O        -9.0126826931       -6.8028907490        6.6446324009
  O         0.5926659167        8.1757696059       -2.6683249517
  O         3.5599835136        3.9564953406       -6.3224404676
  O        -7.4552055818       -6.1247677848        2.6616574487
  O        -3.8198837768       -6.1027887876       -8.4470675502
  O         7.0859013675       -7.5217313712       -3.8054812481
  O        -7.2657806043       -3.1130419010        8.6329978933
  O         9.0332671620        7.6550876431        7.8367635149
  O        -3.9937258391        3.3563538738       -6.7027274093
  O         4.9041235515       -3.9964433767       -3.8242212100
  O        -7.0809335504        7.2003341125       -5.6866537508
  O        -5.7375901489        4.5993810094        9.5841882805
  O        -1.9917938938       10.7646610019        7.4028181187
  O         5.8372228349        4.1068458837        6.1930543666
  O         4.4851950525        5.1964435150        8.2215145035
  O         9.4852602491        3.1924016471        9.2156861674
  O        -2.5321371278       -5.1438359416        8.5892405163
  O        -7.6849309494        8.5343389492       -7.8706429160
  O         4.9139710408        1.3668610989        9.3333173847
  O         6.3125195571       10.0200176105        8.7814885254
  O         0.0655014504        5.0833853817        9.8929290346
  O         5.9240754739       -5.8522648049        5.7416693358
  O         4.7977389855       -5.4022929879       -6.0981219301
  O        -3.6788023895        5.8262508912       -7.8696544520
  O         2.5730956775        9.4744438979        8.6705761120
  O         8.4369939130        4.4486543921       -7.9437437372
  O         0.7214211813        6.3456576516       -7.1484489338
  O        -8.6653848554       -0.5830764797       -6.0414197413
  O         9.4340014530        3.4068575127        4.0461586662
  O        -4.9959720980       -4.3551270330       -6.6675922182
  O         4.6550907027       -6.5952185583       -3.4712024569
  O        -8.5237585581        9.6902758976       -5.8163590665
  O        -1.9687126421       10.3881966602       10.0987584104
  O        -6.2419472252        8.8546185568        7.9708901819
  O         3.2613402401       -4.8695469481        9.7536958575
  O        -7.7831039877       -0.2632978146       -1.4044288598
  O        -6.1477048567       -3.7599826677        6.3533613976
  O         0.2922325993       -5.5802119004       -5.7352209496
  O        -7.1033652896       -2.6796182474       -6.1314881720
  O         6.7546656580        2.0363508833        7.6225430818
  O        -8.7119734946        2.0352909809       -5.9505712809
  O         4.3003364401       -3.0605968553       -8.0665086728
  O        -9.5617564458       -3.2073496884        0.4911712919
  O        -8.2901535692        6.2682962706        0.3778354038
  O         4.6959294628        6.2884656749        5.8201404382
  O        -6.9350889039       -8.7202426825       -1.5272139531
  O        -6.8374926980       -8.0020375796        7.7286863276
  O         4.1780677007        8.7446471155        5.2108615084
  O         6.7026694331       -1.2890698432       -7.7571376888
  O         3.3390384275        4.4949790797       -8.9366069878
  O        -1.3411185780        6.4113715642        8.1895095580
  O         6.8448886492       -4.5124823156        7.9101161537
  O        -5.6219084456        1.5466490782        7.2594055952
  O         9.9230333661        5.3401716112       -4.8820433095
  O        -5.7149599701       -4.3617800312        3.8435938374
  O        -7.7146967773       -8.6349701541        2.7196395325
  O         7.4607793510        2.1999943327        5.2095081900
  O         9.6889602919       -1.5136009457        2.6798685450
  O        -0.5024178101        8.4278728502       -8.0471886618
  O         7.2210693258       -7.1748652840        7.7159103465
  O        -7.5311584898        6.0671098191       -3.0229366168
  O         9.1771262960       -3.1940054557       -2.0473036962
  O         5.8706969386        7.5276298782       -3.2542330595
  O         9.1068986652       -4.9810202537       -7.0141453719
  O         6.1538925317       -2.4424245184        9.4337137013
  O         5.8624878887       -8.8505378521        6.1939654748
  O         8.8266076732        5.1341897335        0.4189562724
  O         8.2554471048       -2.2464401563        7.6861047363
  O        -5.0195809454       -0.6203552787        8.9717533207
  O         6.1285913065        4.0399526759       -6.8329073542
  O         6.5196801385       10.1024253492        1.0850060396
  O        -6.3647483055       10.3458202612       10.2227433398
  O         1.8765561541        8.9165445832       -7.0706481186
  O        -7.5243940785       -5.7149716399        8.7539619662
  O         7.3132705786       -0.4265231552        3.2325930881
  O         3.9885512499       -5.6157622948        3.9016446046
  O        -7.1750116157        6.4891637084        7.1742397853
  O        -8.3161489281        3.5718670370       -0.0476787853
  O         4.7794880317       -6.2178984524        8.0872764425
  O         9.0181338937       -5.4443748806       -0.7976816402
  O         8.9635845711       -6.2379304478        4.3489874117
  O         6.7886678625       -5.2428295732       -2.5665433885
  O         6.9590081995       -2.4541233767       -2.9041975778
  O        -0.4472935502       -7.7660809647        5.4047001734
  O         9.8124171897        7.3088063438       -6.5404705663
  O         7.5173441844        0.8511036680        9.9580925331
  O         0.7110957982       -8.5791829754       10.0490422799
  O        -2.4580712996       -5.3896257676       -6.3724060204
  O        -1.9366451086       10.0908771058       -6.5598968688
  O        -3.8418649358        6.0314436196        8.5952661797
  O        -7.0379708952       -5.0332060015       -3.8689410932
  O         7.5303665884        6.6031427439       -5.0997147668
  O         2.9411152534       -7.4550128593        9.5232265084
  O        -0.7532799418       -7.2009272228       -7.4918748819
  O         6.6359143464        9.8836088257       -5.5317379244
  O         5.7551188943        9.9363291964        3.4925100228
  O        -0.4916418884       -6.4339767121        9.4697150630
  O        -8.5069364249        8.9400028804        6.6635722049
  O        -0.9405363998       -1.8515712675       10.5770515435
  O        -8.6011315595       -7.1389753103       -0.0317178069
  O        -5.4812275533        5.0660611458       -5.1114143062
  O         8.3115943485        4.0647599967        6.9363419242
  O        -5.3603851581        7.0157614722       -3.4469845666
  O        -0.3599151219       -3.8439173086        8.9850454262
  O         8.2657886346       -8.0112375097       -0.4271181197
  O         6.2694193575        9.2656598425       -1.1599342072
  O        -6.1991632209       11.0306882065       -4.2592552242
  O         8.7479238396        8.3888558527        5.2216141606
  O        -3.9197718583        8.2156794959        4.0584299891
  O        -4.3407676464        2.4733845758        5.1538411717
  O        -5.5376495160        9.9647147320       -6.6818148277
  O         8.8626930852       -8.1110199965       -5.6564359354
  O         7.3592831555        7.9364308541        9.8695499272
  O         2.0272972197       -7.5585576868       -6.2934792114
  O        -6.8976730014        8.8979833263       -3.2353946367
  O        -5.9352314438        0.3938819982       -8.3318107896
  O         2.0060045661       -6.4898390815        5.5269598026
  O         6.6957925058       -4.7389605532       -7.8148440717
  O        -8.2365118971        3.5506236189       -3.7685123317
  O        -5.2431364073       -7.4603990348        3.2336851933
  O         8.8563637187       -4.1230670042        2.7066922503
  O         4.0551835677       10.1037622420       -6.1045493494
  O        -8.0100188694       -6.9768176010       -5.7129923273
  O         3.1262881862        1.9177546708       -8.0417744877
  O         6.6537021577        6.5257889551        7.5662745413
  O         5.7185710551        1.1519142426       -7.5912842868
  O         2.4032808227       -4.8885262638       -7.1555150968
  O        10.3949155586       10.1223778652       -3.1510743297
  O        -8.6763445138        4.7374076075        2.3334992339
  O         5.0726584798       -6.5961965507       10.8353527534
  O        -6.3961005805        4.2503525274       -7.2821228636
  O         5.9035783444        9.5372091253       -8.0002832127
  O        -9.1003631187       -7.9029432538        9.0468520602
  O         4.3142871681       -0.6627030869       10.5503994262
  O        -7.9431032162       -3.5500283416        2.6832774908
  O        -3.7235068848       10.4871388681       -4.7665600986
  O         3.6561792984        7.1394324509        9.6160358302
  O        -6.3134761464       -1.1468414923        6.8520789056
  O        -5.2520535685       10.4720270741        5.2243957116
  O         7.4887964518        6.8025770947       -1.1961650119
  O        -6.1656852220        4.1430671357        6.1876637003
  O        -0.1009473238        7.9422698584       -5.3641027409
  O         5.7817753158        5.7069243405       -8.8250054321
  O         5.2200317141        5.4694132541       -4.7685945373
  O         9.4082182314        5.0560268293       -2.2911041504
  O        -2.9561863945        7.1837294222        6.3706209140
  O        -1.5692313831       -7.3087567661       -5.0116367039
  O         0.9848076925       -1.4699115993        8.7738395216
  O         1.4878348143       -3.1137159530       10.7571634158
  O         8.3049306379       10.4418823409       10.5467968061
  O        -1.4231534419        4.5538555692       -7.3393597877
  O        -8.9402857474       -7.8981026117       -7.8304904541
  O        -3.1159200076       -7.5356189149        5.1149418253
  O        -7.8335386516        0.9875035810       -3.6270400645
  O         9.0728915090        6.2124056971        3.7982414156
  O        -4.3901342746       10.8118845451        8.5095597934
  O        -3.1710032756        3.7244726682       -9.2768873963
  O        -1.6600461363        6.7872495472        4.1347653357
  O         1.1709011858        3.7572501882       -7.5789601601
  O         8.3368350011       10.0561273060        7.0107702287
  O        -2.9955352193       -3.5695314688       10.6330906234
  O         0.9349074352        7.4802917702        8.9995602796
  O        -7.0171693162       -4.3139095452       -8.3403609305
  O        -8.5389273466       -2.3254020344        6.4931341857
  O        -6.2026528207        8.1209156376        5.4960962901
  O        -3.6492948750       -3.9686657438        5.5345310267
  O        -4.1027419740        3.6192091567        7.6221927609
  O        -8.3681586181        5.0000604164       10.5337544622
  O         7.4815937530       -4.2331732800       -4.8831656923
  O         8.6175237241       -6.3159414314       10.2518343272
  O         8.5927681672        5.7391511603        9.3571474189
  O        -6.2529419135       -7.6403943062        0.8081761677
  O        -8.4479348441        4.2024359428        7.3451246034
  O         6.0655478787       -7.5551449848       -1.3096954844
  O         6.7154589410       -7.0797534203       -6.5523083889
  O         8.8359795762       -6.4583970308        1.6249777870
  O         2.3622021723        7.0155500121        4.4824200968
  O        -9.5303757731       -5.2633778602       -4.4239240024
  O        -6.2909923875       -6.2214334339       -1.4390015117
  O         9.7929251143        7.6713576946       -4.0140503355
  O        -9.5145469409        2.0973698883        6.4317493061
  O         2.6537655307       -5.5071184407       -4.5956256096
  O        -9.6611540047       -2.8460977478       -5.6153178879
  O         9.4858883079        0.7017081000        4.2007982623
  O        -5.3635001866        7.9021775550       -8.4120325549
  O        -2.9097074907        8.5716273799        8.5987243764
  O        10.2803896134        8.0786283055       -1.3021289285
  O         1.1372825881       -8.0262879454        7.5080334448
  O        -8.2352008617       -7.2004297481       -3.0716813008
  O        -8.0758303182        5.3100864076        4.9352613972
  O        -1.1406166883        9.7574092710       -3.9502341609
  O        -4.8289187549       -6.8988508210       -6.0157857706
  O        -4.5596065979        7.3948389077       -6.0552501068
  O         8.0552673346        8.9604871970       -2.7579548457
  O         2.7569491307        7.4238291383        7.0830516391
 Si         2.9871023360       -6.8382990551        4.3154239818
 Si        -6.7185675705       -4.4597305931        9.4131804711
 Si        -4.1656742550        7.2896292173       -7.6056919692
 Si         6.4773073627        1.8631575295        9.1849711941
 Si        -9.5803348127       -4.0676759183       -0.8997076834
 Si        -9.4756906123       -5.6056688233        5.5820588770
 Si         9.0612360926        7.8746941146        3.7065179172
 Si        -8.1944796714        8.1803828020       -6.3754004486
 Si         4.0517990566       -6.2924944303        9.5656294328
 Si        -3.0591074510        4.3069833138       -7.7619023863
 Si        -9.0224872238       -8.1968211401       -6.2600536386
 Si         5.9637354812        6.9164138036       -4.7760022128
 Si         3.4337491505        7.3181020429        5.5844638624
 Si        -7.2810486444        0.9628987948       10.3436150251
 Si         8.2474925291       -4.8945990046       -8.3801235115
 Si         6.2582597911       -5.8924919639        7.3392435915
 Si        -7.3994358849       10.5386086340       -3.0581524705
 Si        -5.1329829660       -4.5172739054        5.3997250859
 Si         4.3062711137        5.6312237863        9.7654839477
 Si        -4.9064513293       -0.8428470538       10.6226789911
 Si        -7.1148215983        8.0570951716        6.8359361484
 Si         2.4569800536       10.1880149733       -6.0306873558
 Si        -5.6500596837        6.6496429548       -5.0549944238
 Si         5.3365349207       -1.9171812371       -8.5718288093
 Si         6.9047382866       -8.7255505227        7.3762098409
 Si        -7.2164385285       -4.7493277799        3.4966118057
 Si         5.0803803550        4.0299037332       -5.6173621584
 Si        -1.8732088669        9.2609538453       -7.8998866956
 Si        -8.3043348318       -1.9839432909       -5.3430959243
 Si         5.4596942235        5.5177175991        6.9776851680
 Si         4.2891294638       -5.3522209611       -4.4823013216
 Si         7.0421532774        3.1124074132        6.4790539894
 Si        -8.7480908241        5.0656736505       -3.4437932316
 Si         9.2253438896       -2.6640769177        6.3258578238
 Si        -6.7827869126       -4.8587303698       -2.2055621115
 Si        -2.3311592272       -2.1037564503       -8.0536675222
 Si        -6.6345433437        7.4157380291       -2.6610473167
 Si         9.4876518419        4.6470262269       10.1578230961
 Si        -8.1398812651       -7.1051171050        8.0445989393
 Si        -2.9227449843       10.1656597010        8.5075340789
 Si         0.3475901750       -2.5636082418        9.7047974018
 Si         8.7347361847       -0.7841143247        3.8064566831
 Si        -5.0774011412        2.8611868656        6.4855724388
 Si        -7.0714400572       -7.3725637975       -0.5790050064
 Si         2.8542500324       -3.9329853743       -8.3580592037
 Si        -6.0424634609       10.3193334997        8.6436864179
 Si        -8.3714534602       -0.3758275936       -2.8487347247
 Si         5.4365888834        9.3786749427       -6.4574037021
 Si        -8.1350220627       -6.1608213573       -4.3131128013
 Si        -7.5967516581        9.1339412939        2.4451448254
 Si        -5.2992804394        8.9723213991        4.4451574061
 Si         0.3005400550        8.9409049033       -4.1059822763
 Si         6.1482031982       -6.7305083085       -2.7002395382
 Si         7.7920123444        6.9720483910        8.6294239142
 Si         9.0239583460       -4.2966743702       -5.4953871296
 Si         7.3987647793       -3.2101226572        8.7127393819
 Si        -2.1334657284       10.5671534125       -4.9985427285
 Si        -4.6990984622       -7.4354490461        4.7592555330
 Si        -0.6578676462       -7.7536663178       10.3686102902
 Si        -6.9337965047        4.0978036241       -8.8058017379
 Si         1.8614659488       -5.9373565090       -5.9754991135
 Si        -6.2444900899        9.2332857297       -7.9696530861
 Si         9.1321660336        6.6791355388       -5.1823676073
 Si        -7.4556241714        5.0454971035        6.3761324989
 Si        -0.9251502167       -5.2166179549        8.4420322865
 Si         9.1209237406        2.0901272858        4.9409704844
 Si         9.1619032681       -6.8386563190        0.0318116996
 Si        -5.1378457730       10.9433416680       -5.4071201307
 Si         0.1522059928        6.0167030968        8.5818460840
 Si        -2.8047153331        7.0456583617        7.9449164591
 Si         6.7796795675        4.4370075940       -8.3037667698
 Si         5.8152490690       -5.9120349287       -7.2394954850
 Si         2.8039539244        3.5258964411       -7.7097342187
 Si        -1.0958273471       -6.3015792495       -6.1837264671
 Si        -5.4987798501        3.7297913378       -6.0950326613
 Si         6.9425814526        8.1054471737       -2.0299971065
 Si         8.3618270332       -5.6426839650        2.9052596951
 Si         6.9730243243        9.4958891743       10.1594567654
 Si        -6.2172602691       -3.3773099837       -7.2771436753
 Si        -9.3253304497        0.6643096754       -6.7860576412
 Si         0.6596874620       -6.9364875502        6.4036586374
 Si         8.3145661215       -1.7899856927       -2.1450292508
 Si        -4.2021598045        4.4993736507        8.9829558469
 Si         4.3560667355        1.0005395869       -8.5470637635
 Si         0.5086172996        7.8817245358       -6.8832445136
 Si        -7.1022912554       -2.5929087242        7.1060250644
 Si        -2.5766026812        7.8525012224        4.9428450037
 Si         4.9039990786       10.1003604669        4.8647339877
 Si        -4.0342023250       -5.7020173941       -6.8679566037
 Si         7.3384428893       -7.9628924051       -5.3246045980
 Si         1.8887574967       10.9064016920        8.9543780055
 Si         6.8237528432       10.6361731149       -0.4521651789
 Si         7.1612479845        0.2834919536       -7.8999278838
 Si         0.0670989676        4.9346720878       -7.8745789623
 Si        -9.4199616416       -3.0948860473        2.1312689052
 Si        -3.5760635275       -4.8449044723        9.8332602543
 Si        -7.8073065264        2.2458370609       -4.6088418180
 Si        -7.8627408915        7.6897664068       -0.2970735267
 Si        -6.6126989135       -7.5045968914        2.3832839462
 Si         6.4468522439        8.9382219881        2.3649592210
 Si        -1.9020159294       10.9075658940        5.7952060766
 Si         8.2709943785        5.3389126367       -1.1103305355
 Si         5.5365360950       -5.1183026064        4.3094473298
 Si         9.3312666952       -7.7292967086       10.3246404972
 Si        -9.7470883442        3.2530768962        7.5580652357
 Si        -9.2936552337        4.9389651254        3.8343096998
 Si        -6.0581232577        0.0381921052        7.9170876125
 Si         9.2457330217        8.7537099363        6.7173014867
 Si         6.6348369918       -3.9079355279       -3.5308865204
 Si         9.6965797576        8.7542314954       -2.7517447907
 Si        -8.8874198092        4.8126905250        0.7103247879
 Si         2.5105414910        7.8351227756        8.6065328856
 Se        -2.4033087148       -0.7008305388        3.0520403335
 Se        -1.7518280780       -2.4559353926       -5.8350442539
 Se        -4.9135526227       -3.5112294427       -1.8666161524
 Se        -2.1065808440       -4.8264363894        1.8267767128
 Se         1.0908988514       -4.2322406141       -1.3308804380
 Se         1.6187639040       -6.8965478462        2.4407714017
 Se        -6.4609004712       -0.3146143327        1.6918971800
 Se        -4.1292679887        0.1671618352       -4.8365154398
 Se        -4.8319630011        2.3480586599       -0.3991397250
 Se        -1.9640476575        0.9964034939        7.8950140471
 Se         4.1176620237        0.0796048551       -1.5815413996
 Se        -2.2043875578       -1.1165183039       -1.0910039127
 Se         1.6129523322       -0.7264001050        1.1530678184
 Se         0.9133473042       -2.8539599574        4.9077935394
 Se         4.9918372582       -3.7742707070        0.0770196425
 Se         5.7232821701       -2.8993875908        4.4085161895
 Se        -1.9468166836        5.2779306359       -2.6856982209
 Se        -4.0556848128        5.5228362095        1.7569551150
 Se        -0.9001686177        2.9353637999        4.0549256114
 Se         0.4602354214        1.6034522678       -3.3840417709
 Se        -0.5862966082        2.7361379257        0.2505090791
 Se         0.6828486531        5.8902915210        1.6699853618
 Se         0.9974229912        4.7729920234        6.9240088668
 Se         5.3531451759        2.0774715438       -4.5328324022
 Se         4.1099559370        3.2355012360        1.8261243628
 Se         1.5985495479        1.2008206188        5.3298847548
 Se         3.8108763032        0.4088408971        5.9871291452
 Se         7.7208866380       -0.6920469689       -0.2759632766
 Se        -1.9330605664        9.0691723514        0.1763385112
 Se         2.9883066686        9.1253156340        0.1505431172
 Se         2.6678364237        5.0222987476       -2.5980245959
 Se         5.4272313207        6.9521592100        2.0423710952
 Se         6.7479743023        3.7835763359       -1.8916390603
 Cd        -6.6516149499       -1.9436649697       -0.3640791133
 Cd        -4.3718184463       -2.3389772748       -4.1481520012
 Cd        -2.9848614104       -3.1130978928        3.7054647926
 Cd        -2.6721950703        0.8031355137        5.1543526691
 Cd         2.9766881615       -2.5006378886       -1.1015911083
 Cd        -1.1255314232       -3.2504910233        0.0165340434
 Cd        -7.5018973072        1.6667869522        0.4512336363
 Cd         1.5391698991        3.3000159143        1.6332272611
 Cd        -3.7232068959        0.0072386458        0.7873333847
 Cd        -0.9932167007        3.1835276748        6.7295590787
 Cd        -1.4358661897        0.0411308528       -4.5237135148
 Cd         5.3492927050        0.5241038861        3.6544561911
 Cd         0.2424914989       -4.7508932226        3.0807414985
 Cd         3.3594061876       -2.1544568049        5.1313685831
 Cd         4.1845462761        0.7110472790        0.9824985949
 Cd         2.7408147736       -5.2338446865        0.4347560011
 Cd        -1.2952589317        7.3761386186       -1.5506878039
 Cd        -3.0236428299        4.1126569371       -0.2650652699
 Cd        -3.3947368353        4.0101168552        3.6389217246
 Cd        -4.8409932425        1.1447725179       -2.6477741428
 Cd         0.2083859896        4.3106108449       -1.7964232279
 Cd         0.0608017022        0.2894715132       -0.6705955586
 Cd         0.2135506517       -0.1509013941        7.2324953832
 Cd         3.1285931237        1.6109244986       -3.5095524585
 Cd         6.6571199557        1.1878320554       -1.5313675735
 Cd         0.4423753046        5.8761104238        4.4303279712
 Cd         5.3993211024       -1.7476055062        1.8903698291
 Cd         0.4398441667       -0.6089579393        3.4689733663
 Cd         2.5317638085        7.5056343276       -1.9058043472
 Cd         0.5007932923        9.3703800946        0.2052411818
 Cd         2.9222282202        7.3192450126        2.1160057387
 Cd        -1.8989549307        6.8660901170        1.8128585638
 Cd         4.4823701815        4.5015610912       -0.5480643474
