402
 i =     8600, time =    17200.000, E =     -5882.3560892345
  O         6.6775935833        2.6557214252       10.3815036997
  O        -5.3931964097       -2.7508361986       -7.7691768524
  O         9.2801061685       -4.7532013873        6.3507845148
  O        -7.8126666376        8.3095984599        1.2070318092
  O         1.8060132267        9.1805747360       -4.1571487889
  O         8.2000468597        8.2808057643        2.8714144290
  O        -6.0993560972        8.3472599513        3.3920856930
  O         5.2883969909        7.2646513025       -5.4914669292
  O        -7.8379935789       -4.3943706879       -0.9939979976
  O         8.8256300245       -1.9861775013        5.7120540224
  O         9.3577724763       -1.2376177862       -2.7954663998
  O        -3.1961869779       -1.3335025243       -8.0662136622
  O         8.4387680409        0.0991402905       -6.6328054459
  O        -4.8827246101       -4.8163665354        9.4548853136
  O        -7.2537452644       -0.2443896910        9.1168290773
  O        -6.6077003847        6.9130638663       -0.7790619437
  O        -0.0430421935       -6.2260589632        7.3856186217
  O        -6.2906019249        2.1187659916       -4.8781744526
  O        -1.7337820882        8.8859803037        5.5546298540
  O         8.4766691024       -3.9957748026       10.5712489923
  O        -7.8366590128       -5.6635653499        5.0317182704
  O         6.8677618085       -6.0297693493        3.7892468326
  O        -8.5731218290        0.2506672486       -7.9915572833
  O         3.8504049390       -8.6975113336        4.7628018547
  O        -7.6840098048       -2.1024526385       -3.5641611731
  O        -8.7200569992        7.9027301170        3.6948560220
  O        -2.5519668758        7.3619693727       -7.5355890946
  O        -6.9089746675        2.0273867262       10.4154047764
  O        -5.0720088125       -6.6907027592        5.8626374119
  O        -8.8177932900       -7.0467212585        7.1492083798
  O         0.5437412838        7.9476224695       -2.1792942124
  O         3.6672175983        3.4300957481       -6.0164552775
  O        -7.1189742113       -6.4181372401        2.7251119431
  O        -3.8138571139       -6.4338777537       -8.1467431395
  O         7.0865054145       -7.8382505319       -3.5369904999
  O        -7.0993385127       -3.6018544423        8.9469586097
  O         8.9308069433        6.9063063853        7.7894662776
  O        -3.9820136601        2.9397227298       -6.1579944327
  O         4.9773538468       -4.3583234465       -3.7325496612
  O        -6.8117485129        6.9238386272       -5.2759847979
  O        -5.7902747698        4.3655035365        9.9462664138
  O        -1.8802076977       10.2547155403        7.7795367825
  O         5.7036005637        3.3999517514        6.6970457863
  O         4.5813066579        4.6877273045        8.6850448425
  O         9.4291158571        2.6905438775        9.5190848370
  O        -2.4919373168       -5.6543860076        8.8803150640
  O        -7.4788083640        7.9461012401       -7.5703533102
  O         4.8024779922        0.9431218160        9.7882603268
  O         6.3151029509        9.6974674119        9.0981684880
  O         0.0256446758        4.5197135024       10.2811739323
  O         6.0126024538       -6.0474001424        6.2838712625
  O         4.9062687278       -6.0206925839       -5.5747961857
  O        -3.8510441213        5.2693871451       -7.3779653241
  O         2.7667342164        8.8605069861        9.2753565974
  O         8.4736457796        3.9492360629       -7.6274496329
  O         0.7821415118        5.8347832810       -7.0346788267
  O        -8.5599620814       -1.2407523038       -5.8921540914
  O         9.2448407581        3.0629209822        4.6211465177
  O        -4.8181474129       -4.8564677324       -6.1434466618
  O         4.7254354659       -6.9223489827       -3.0117659068
  O        -8.1875152391        9.3560502619       -5.4702198324
  O        -1.7837748074        9.8045269250       10.5357617628
  O        -6.3794639422        8.2036645422        8.7265028970
  O         3.1299958784       -5.4845508671       10.0832872253
  O        -7.8991346572       -0.9664523056       -1.1385249754
  O        -5.8354502051       -4.1786753912        6.7903334510
  O         0.2955727310       -6.1952091419       -5.5436510448
  O        -6.9000229696       -3.4620121525       -5.6959323070
  O         6.6080363854        1.1636821994        8.0162830635
  O        -8.9136928269        1.3814949496       -5.5468873404
  O         4.3654151504       -3.7057449184       -7.7073250847
  O        -9.3471016792       -3.4687576647        0.9478158175
  O        -8.5331013049        5.9071846185        0.9869143527
  O         4.8024394438        5.7626527702        6.0634029220
  O        -6.7070537848       -9.1635744131       -1.2406929139
  O        -6.5707804213       -8.4214750834        8.2132017726
  O         4.1129785012        8.3175194218        5.7099076956
  O         6.6654769025       -1.9228988945       -7.3540686265
  O         3.3264925138        3.9759884512       -8.5715377217
  O        -1.1182495160        5.8149161825        8.3264592132
  O         6.8548676105       -5.0353111892        8.5066130385
  O        -5.5682213780        0.9145203699        7.4646871384
  O         9.8678811935        4.8007681675       -4.5421453156
  O        -5.5400826314       -4.7483576543        4.1842999215
  O        -7.4649886134       -9.0498745820        3.1005278057
  O         7.3958286035        1.5257147936        5.5428385509
  O         9.8711136977       -2.0377034389        3.3223659334
  O        -0.2078502897        8.3834408690       -7.2815929593
  O         7.5042646245       -7.5694801289        7.8798265243
  O        -7.5778610781        5.4535495465       -2.7541845436
  O         9.1096449512       -3.5268942360       -1.4337673183
  O         6.0682153760        6.8491810113       -2.9381861630
  O         9.1307478330       -5.3758322972       -6.5405415198
  O         6.1005474227       -3.0321049635        9.7744862820
  O         5.9074696505       -9.1853167477        6.4827978773
  O         8.7493581656        4.2350016333        0.6868947079
  O         8.4488579699       -2.9894526748        8.1255059574
  O        -4.8710002112       -1.1738079918        9.3543859991
  O         6.3110641662        3.3399005802       -6.2817513187
  O         6.6523470006        9.7478840620        1.3925611833
  O        -6.0870760295        9.9213405371       10.6358015497
  O         2.1640944755        8.2891711629       -6.6132590658
  O        -7.1570664211       -6.1986954010        9.1611156472
  O         7.3473554517       -1.1101518906        3.6217947561
  O         4.2042797011       -6.0475505052        4.2882409920
  O        -7.1754640310        5.9113122749        7.4958180971
  O        -8.2081711028        3.2204173028        0.1579850424
  O         4.9920859915       -6.9546768212        8.6954040860
  O         9.4023767116       -5.8562079622       -0.1553418497
  O         9.1487121583       -6.7934109604        4.7926487999
  O         6.8332112203       -5.4932768931       -2.2739064671
  O         7.0513649071       -2.8101817515       -2.7642049558
  O        -0.3671585482       -8.2629988479        5.6749940464
  O         9.9457504112        6.9718613311       -6.1485986758
  O         7.3334949701        0.0585012468       10.3701599494
  O         0.6907197012       -9.3913899053       10.1749808226
  O        -2.4038809012       -5.9125292299       -6.0252703719
  O        -2.1911634853        9.6475595881       -6.1988534271
  O        -3.6445188501        5.4259909642        9.0987780339
  O        -7.1778103773       -5.3190326877       -3.5247790824
  O         7.6773275458        6.2679570072       -5.0639927258
  O         2.9066159614       -8.0078122404        9.9106324911
  O        -0.7041453864       -7.8402240268       -7.1322070432
  O         6.7664021517        9.3143779508       -5.0545721482
  O         5.9289712640        9.2591326102        3.9304840674
  O        -0.6709898073       -7.3051000635        9.7072532619
  O        -8.4817863694        8.3067055898        6.9834792291
  O        -0.7456807367       -2.4608388979       10.6821140354
  O        -8.3905733178       -7.6991728107        0.3656923623
  O        -5.4657682636        4.6505081138       -4.6109372326
  O         7.9838781849        3.2893833366        7.5568990507
  O        -5.2809897008        6.6313497563       -3.1081692343
  O        -0.0975971745       -4.5790899792        9.4453820724
  O         8.4415230135       -8.5128167929       -0.0744538686
  O         6.3820403136        8.7286628663       -0.8034769545
  O        -6.0937313239       10.5969177073       -3.7943716378
  O         8.7986803694        7.6822776858        5.3985157458
  O        -3.8521564774        7.9339423053        4.5209599997
  O        -4.1463740617        2.3003760919        5.6307536713
  O        -5.4642668475        9.4765505006       -6.2646568327
  O         8.9341076665       -8.7093356037       -5.1520925757
  O         7.4028917054        7.4890766469       10.0083620640
  O         2.0329487393       -8.1712311589       -5.9417465183
  O        -7.1610668489        8.3212527294       -2.9446427947
  O        -5.8744874651       -0.1760846889       -7.9091438486
  O         1.9570457345       -7.0326255467        5.6702429455
  O         6.7331931746       -5.5015725587       -7.6299098245
  O        -8.3024469960        2.9323454485       -3.3835972165
  O        -4.9724900331       -7.8175103689        3.4424000178
  O         9.0038555910       -4.5216443552        3.1322984012
  O         4.2061654590        9.6362131947       -5.6256455010
  O        -8.1618777079       -7.3929636258       -5.3373487075
  O         3.1316563854        1.3486441562       -7.6459714294
  O         6.7486830585        5.8104111754        8.0192693018
  O         5.7435662977        0.5854690484       -7.0745144924
  O         2.4319328093       -5.4635145331       -6.8158631806
  O        10.3550347431        9.7214888726       -2.7393213240
  O        -8.6416344699        4.0366969556        2.6591430228
  O         4.7995732586       -7.0898907267       11.3949639529
  O        -6.3785753978        3.7859173816       -6.9148767941
  O         5.9676547784        8.9369506302       -7.6253580876
  O        -8.8927163189       -8.2688994020        9.4489068990
  O         4.3027799634       -1.1958233322       10.9890704746
  O        -7.6744865024       -3.8965005791        2.9257559993
  O        -3.7156359747        9.8702448998       -4.2358881731
  O         3.8071426330        6.5382648940       10.1541207963
  O        -6.1839579869       -1.6047038667        7.2130666220
  O        -5.1935742074       10.0263890482        5.3782200257
  O         7.5775126349        6.2232457315       -0.8967506516
  O        -6.4900501870        3.3714882926        6.6494376214
  O         0.3401615604        7.2211250859       -4.9297678929
  O         5.8385938245        5.0217905296       -8.2012349108
  O         5.3292123308        4.8840893968       -4.4440451005
  O         9.3910342360        4.6804501527       -1.9166595913
  O        -3.0856534197        6.9946187079        6.9094619206
  O        -1.5392309075       -7.8518610095       -4.6419217685
  O         1.0623685893       -2.1063736709        8.8099124243
  O         1.6731827629       -3.4687912115       11.0198636539
  O         8.4298176403        9.7971083430       10.6988932212
  O        -1.4142740924        3.8759067129       -6.9952768979
  O        -9.0511286634       -8.5823114190       -7.4416415075
  O        -2.9420359023       -8.0941596483        5.3896217203
  O        -7.8042381017        0.4488495954       -3.3045687707
  O         9.0552207535        5.7239188929        3.8460088300
  O        -4.2426054138        9.9882965969        8.9700965530
  O        -3.3195507036        3.2867357753       -8.7609343660
  O        -1.7034328813        6.4500307847        4.6902325155
  O         1.1940107855        3.1763403331       -7.2041186179
  O         8.3839269000        9.3428084019        7.4127658658
  O        -3.0072053782       -3.9341168235       10.9013183655
  O         1.1072900646        6.8286792833        9.4114609348
  O        -6.8404821371       -4.8986653642       -7.9668809200
  O        -8.3993663473       -2.8415358563        6.8630897172
  O        -5.9483672116        7.7193547809        6.1949568984
  O        -3.5002838606       -4.3370945491        5.5865608982
  O        -4.2712319261        3.0682416289        8.0707491954
  O        -8.3190276126        4.2767929909       10.8991674335
  O         7.4914385776       -4.4795425714       -4.6879047381
  O         8.8946956567       -6.6214467562       10.5737242304
  O         8.8108355083        5.2550281691        9.6717947885
  O        -6.0033737141       -8.2437013337        1.0594281602
  O        -8.8448872924        3.9766507642        7.6926964831
  O         6.2083052198       -7.9464249193       -0.9821470501
  O         6.7103834298       -7.7789371743       -6.2980439569
  O         8.9635957814       -7.0728600972        2.1123829255
  O         2.3750722788        6.5058492971        4.8844645591
  O        -9.7289499865       -5.8845916763       -3.9289634229
  O        -6.1825151482       -6.5964910728       -0.9482582350
  O         9.9259478001        7.2338129750       -3.6598862691
  O        -9.5215473857        1.6125655055        6.8887299432
  O         2.6793899485       -6.1415573278       -4.3637787884
  O        -9.4527425881       -3.4273205778       -4.9375918547
  O         9.4425399562        0.3247663432        4.4292471258
  O        -5.0211694164        7.6337956518       -7.9914195441
  O        -2.6143051047        7.9169754859        9.1659860356
  O        10.1765035640        7.5721084900       -0.9382536909
  O         1.4249334310       -8.5130534396        7.7537282431
  O        -7.9935437960       -7.6791640357       -2.8013844602
  O        -8.1691002913        4.8810321302        5.1868320216
  O        -1.0493740523        9.2470955869       -3.7087839264
  O        -4.4780416747       -7.5703652551       -5.7753436981
  O        -4.0391541707        6.7991926750       -5.3278971075
  O         8.2370141842        8.3324415999       -2.4129248167
  O         2.9790055735        6.9602014398        7.5277512210
 Si         3.1645634781       -7.2740861832        4.4877546724
 Si        -6.4653654298       -4.8147846815        9.8108363682
 Si        -3.9602788599        6.8091091304       -7.0094780501
 Si         6.4039929558        1.2232664784        9.6330172067
 Si        -9.3659216091       -4.3590529009       -0.3875025926
 Si        -9.2240176789       -6.0879454075        5.8416962161
 Si         9.1604432402        7.3888338922        3.8700503038
 Si        -8.0174177239        7.7804937045       -6.0008758602
 Si         4.0255884187       -6.8402778247        9.9612313528
 Si        -3.0766994926        3.8661093904       -7.2258265003
 Si        -9.0131167558       -8.6534402662       -5.8257373797
 Si         6.0924422252        6.3132202413       -4.4479617402
 Si         3.5438216349        6.8137686430        6.0102432491
 Si        -7.1266488672        0.4307387751       10.6322533982
 Si         8.3527616805       -5.3990978815       -7.9340651540
 Si         6.3392679056       -6.4208044103        7.9036516308
 Si        -7.3540999227       10.0954388313       -2.7696330243
 Si        -4.8739274689       -5.0559833005        5.7265183734
 Si         4.4989315916        5.0153781327       10.2399596029
 Si        -4.8030910393       -1.3359346259       10.9435632156
 Si        -7.0743835914        7.5517471396        7.3881960824
 Si         2.5674228000        9.6009512984       -5.5715654287
 Si        -5.4376104505        6.2926588011       -4.6495074501
 Si         5.3135893453       -2.4883454767       -8.2536259188
 Si         7.0166798474       -9.1243648436        7.6731828960
 Si        -6.9941017832       -5.1828736174        3.7530976907
 Si         5.0389608708        3.4448267030       -5.1792073733
 Si        -1.7178556882        8.7146213112       -7.3894263659
 Si        -8.1317190006       -2.5914046466       -5.0818390369
 Si         5.5141616789        4.9845332343        7.3057151123
 Si         4.3087827082       -5.8498971613       -4.1292595172
 Si         6.8872105184        2.2956629812        6.8903102237
 Si        -8.8543297989        4.4393845556       -3.1446485304
 Si         9.3816560545       -3.1421294744        6.7964284814
 Si        -6.6702759791       -5.2314735599       -1.8202960544
 Si        -2.1647254860       -2.6380477884       -7.8721693947
 Si        -6.7329343684        6.8235360981       -2.3927598219
 Si         9.4810625496        4.0390211545       10.4791952982
 Si        -7.9007754939       -7.3888454485        8.4301246375
 Si        -2.6923495862        9.5409503838        8.9810716812
 Si         0.4894614450       -3.1414759047        9.8855693323
 Si         8.8234952270       -1.2411011146        4.2829161236
 Si        -5.1769634838        2.4073571669        6.8647399692
 Si        -6.9060519628       -7.9131658027       -0.2623622035
 Si         2.8721429386       -4.4542487418       -8.0049080520
 Si        -5.8608629507        9.7276046692        9.0378536616
 Si        -8.3908932482       -0.9454469180       -2.6430387652
 Si         5.5615837504        8.8141866696       -6.0536554116
 Si        -8.1844336584       -6.5685855425       -3.9109321421
 Si        -7.5829361971        8.6894635025        2.8604641875
 Si        -5.3517788149        8.4583294329        4.8771671043
 Si         0.4288802833        8.3444387653       -3.7441050409
 Si         6.3294482298       -7.0424176062       -2.3681491275
 Si         7.9270458828        6.4019590574        8.9341397017
 Si         9.0772559808       -4.7744263786       -4.9996758244
 Si         7.4670655137       -3.6907646365        9.2596613789
 Si        -2.1526919409       10.0995190070       -4.6028766785
 Si        -4.4867556747       -7.9533736209        5.0266720768
 Si        -0.3848339449       -8.4046922180       10.7485940966
 Si        -6.8003407053        3.5993923112       -8.4881078336
 Si         1.8568298510       -6.5234181486       -5.6708735573
 Si        -6.0984383921        8.7908630815       -7.5995185496
 Si         9.2894413765        6.3193627095       -4.8200880037
 Si        -7.6685631709        4.5340528038        6.7330084324
 Si        -0.8185470592       -5.9431307001        8.8006127077
 Si         9.0550600819        1.5976742155        5.3699673007
 Si         9.4024344408       -7.3354963842        0.4995922674
 Si        -5.0953693417       10.4620969733       -4.9888530410
 Si         0.3091265069        5.4039207834        9.0135375013
 Si        -2.6017078123        6.4429597385        8.3759327377
 Si         6.8064430787        3.7156913107       -7.8057856567
 Si         5.7909309923       -6.5891566026       -6.8661680917
 Si         2.7957530015        2.9836337605       -7.3485946898
 Si        -1.0673004545       -6.8937626944       -5.8899944431
 Si        -5.4733472074        3.3867959878       -5.6108768678
 Si         7.0222611048        7.5224843352       -1.7342874780
 Si         8.5247716861       -6.1190814003        3.3950193733
 Si         6.9806664708        9.0107280968       10.4246392815
 Si        -5.9624382141       -3.9768747551       -6.9106313676
 Si        -9.2424269499        0.0730224683       -6.4973168018
 Si         0.7593352742       -7.5292803284        6.6255263180
 Si         8.2879056833       -2.1411091358       -1.9009958584
 Si        -4.2627548074        3.9912567830        9.3491252551
 Si         4.3979247789        0.4374193827       -8.0724869138
 Si         0.7694622033        7.3522584197       -6.4534422119
 Si        -6.8636203279       -3.1109427925        7.3749545833
 Si        -2.6192797372        7.4914802601        5.4349295047
 Si         4.9914025558        9.5578198911        5.2640085507
 Si        -3.9003429653       -6.2288650795       -6.5068856412
 Si         7.3552828768       -8.5210843185       -4.9965153154
 Si         1.9949254197       10.2877744550        9.2256021926
 Si         6.9180409625       10.1988764411       -0.1479441815
 Si         7.0685432605       -0.3413979959       -7.4651928436
 Si         0.0950443088        4.3230673080       -7.5456520770
 Si        -9.3191968739       -3.4819463861        2.5913291852
 Si        -3.4704621639       -5.2682980724       10.1260740583
 Si        -7.8336240433        1.7154977856       -4.3483807899
 Si        -8.0022255146        7.1321741758        0.1392050052
 Si        -6.3998793572       -7.9180142442        2.6237576177
 Si         6.5899390818        8.5554581352        2.5869411223
 Si        -1.8022750826       10.3816069469        6.0951086870
 Si         8.1564455696        4.6952018306       -0.7768847472
 Si         5.7155088915       -5.4655101741        4.8541417490
 Si         9.4371645615       -8.2092180482       10.6633861337
 Si        -9.8945721665        2.8723355748        7.8924940870
 Si        -9.3121016137        4.4159262098        4.0687619519
 Si        -5.9549596390       -0.4614716529        8.2457624606
 Si         9.3033160078        8.1318397549        6.9017181655
 Si         6.5564909106       -4.2716100170       -3.3654296876
 Si         9.8313158519        8.2184431882       -2.4090898227
 Si        -8.9689695995        4.2961377710        1.0093182913
 Si         2.6981299425        7.2397445604        9.1269216829
 Se        -2.5364049918       -0.7647053315        3.5355528475
 Se        -1.5832401907       -2.9871961299       -5.6280894945
 Se        -4.7100204257       -4.0633662973       -1.7001108902
 Se        -1.8017496549       -5.0149820843        1.9506519382
 Se         1.6056565352       -4.3346272706       -1.0228624327
 Se         1.9417792285       -7.2836236533        2.5687123890
 Se        -6.1203004097       -1.0578720757        1.7511653060
 Se        -4.0627294230       -0.2094773966       -4.7871105117
 Se        -4.8848504742        2.0500551892       -0.4440058444
 Se        -1.7000498608        0.2142539499        7.9229316804
 Se         3.5321757637        0.2014173204       -0.7485161824
 Se        -2.2334551607       -1.7091709459       -0.9638566311
 Se         1.5207736549       -1.2607479595        1.6396380223
 Se         0.5974314591       -3.5331325306        5.0457560502
 Se         5.4036174630       -3.8831577259        0.5135436358
 Se         5.7027122949       -3.1748459575        5.0499604420
 Se        -2.1784766280        4.7757863922       -2.4312278974
 Se        -4.0431758557        5.2120487095        2.2386920446
 Se        -0.5554611611        2.9454924042        4.3750620078
 Se         0.1810433138        0.7547386702       -2.8681469726
 Se        -0.8310941235        2.1704091915        0.5263090540
 Se         0.6667598245        5.8021148590        2.0165738339
 Se         1.3088488282        4.3428725690        7.3576842168
 Se         5.0890352076        1.4661087846       -4.2189342950
 Se         3.5082486897        3.2518678640        2.4560998755
 Se         1.7028232170        0.5208080970        5.3910748992
 Se         3.6193367644       -0.4928628946        6.4216760124
 Se         7.6432661772       -0.9847126334        0.0664570586
 Se        -2.1957753617        8.7047613985        0.5376191415
 Se         2.9100584683        8.9115281529        0.4740579991
 Se         2.7101718104        4.5775188410       -2.0023187575
 Se         5.7010054693        6.5405202777        2.2853737139
 Se         6.3760775309        3.4081411315       -1.5524334900
 Cd        -6.3537450991       -2.4951354684       -0.3029786921
 Cd        -3.9617922242       -2.7247619677       -4.0397788700
 Cd        -2.8090783162       -3.4033360726        3.7376520115
 Cd        -3.0981754378        0.3530387080        5.6861118121
 Cd         3.4667083337       -2.4182864069       -0.6067496190
 Cd        -0.5644102469       -3.4904382300        0.2061782878
 Cd        -7.2540521406        1.2319520586        0.1812807624
 Cd         0.8961146735        3.1778044486        2.0747153282
 Cd        -3.7612222711       -0.4644527465        0.8431358106
 Cd        -0.2049508622        2.2851089734        7.0218445570
 Cd        -1.3038996185       -0.5967458979       -4.4109796587
 Cd         5.2329740908       -0.0927238093        4.2869534009
 Cd         0.1463996698       -5.5170687934        3.4237027479
 Cd         3.1480424318       -2.9056414020        5.6359673779
 Cd         3.8446600109        0.4741315095        2.0087365539
 Cd         3.1549516018       -5.4026811455        0.9569304373
 Cd        -1.7152576270        7.1113597462       -1.4582624790
 Cd        -3.4437369221        4.3762846293       -0.1806041582
 Cd        -3.0479199552        3.5492270359        3.9804052706
 Cd        -4.6255526278        0.8433477936       -2.5868150967
 Cd         0.1922004674        3.7486442595       -1.5402051521
 Cd         0.0443780003       -0.2650637163       -0.2050427185
 Cd         0.0451777750       -1.5161560809        7.0911884321
 Cd         2.6630572068        1.2305677030       -3.3942312409
 Cd         6.1411826714        0.8435671016       -1.1426396679
 Cd         0.3324327312        5.4433155846        4.8949463069
 Cd         5.8650306766       -2.1776330715        2.3623234006
 Cd         0.1211856477       -1.1774489762        3.6714819932
 Cd         2.4121251015        7.0560139065       -1.2992658559
 Cd         0.3161127055        9.0315263715        0.4271538284
 Cd         3.0329499226        6.9464858271        2.6292728767
 Cd        -1.8129431221        6.7641269985        2.3346125032
 Cd         4.2472261489        3.7586259454       -0.0276618271
