402
 i =     9100, time =    18200.000, E =     -5882.3921529503
  O         6.6691986002        2.7405055376       10.3077111004
  O        -5.4007786227       -2.3495050712       -7.9014784368
  O         8.9994710580       -4.5971935025        6.2596777717
  O        -7.5149639912        8.4356625229        1.1910974630
  O         1.9263633008        9.5753182083       -4.2516930637
  O         8.0171656765        8.3276820268        2.7849261380
  O        -6.0563549527        8.4695117458        3.3097518954
  O         5.3260658760        7.4168005845       -5.6427297990
  O        -7.8404707057       -4.0443056550       -1.0187609792
  O         8.6429332403       -1.9637341584        5.6466568300
  O         9.2292710715       -0.9588308574       -2.7757158055
  O        -3.1876973318       -1.0868571107       -8.1329085833
  O         8.6468118380        0.0819866510       -6.8374532180
  O        -4.9598570351       -4.9524066622        9.3249257121
  O        -7.2594777734        0.0349484631        8.9584816010
  O        -6.3365102602        6.9624521920       -0.8904704104
  O        -0.0870174984       -6.0747736852        7.2813899417
  O        -6.3570847467        2.3826559320       -5.0067309662
  O        -1.6249836337        8.8749195942        5.5972876136
  O         8.5179011965       -4.1458786901       10.4122753351
  O        -8.1182249326       -5.2628068046        5.0445419510
  O         6.8275346130       -6.0679336830        3.4836162770
  O        -8.4152550917        0.5669685015       -7.9746557481
  O         3.7657977483       -8.5935649467        4.9803285383
  O        -7.8350805225       -2.0461444963       -3.5128512530
  O        -8.8619879316        8.3556087285        3.4880726745
  O        -2.5352595610        7.6082995753       -7.9051517810
  O        -7.0860925787        2.3010392550        9.9848076633
  O        -5.0817009821       -6.5674973054        5.7423855125
  O        -8.9676042838       -6.9114023124        6.9587633017
  O         0.5217892078        8.1332426520       -2.3852587351
  O         3.6582625196        3.8800839992       -6.1116263460
  O        -7.1451828018       -6.3970623981        2.6850645293
  O        -3.5869687252       -6.1725708965       -8.3932545844
  O         6.9607368421       -7.8982392908       -3.5414128087
  O        -7.0697962169       -3.3797137043        8.9835614106
  O         9.0021688916        7.1625253278        7.7329712145
  O        -4.0340654716        3.1719344710       -6.3619409631
  O         4.9340637726       -4.3333121416       -3.8991448956
  O        -6.7093686111        7.1819516904       -5.5412357653
  O        -5.7797419862        4.5848079074        9.8567142174
  O        -1.8640699468       10.4191705993        7.7397445464
  O         5.5924729630        3.5713853432        6.5831542306
  O         4.5476945977        4.6900154277        8.5759006326
  O         9.4751160036        2.7029876920        9.4120821298
  O        -2.4302599059       -5.2537068883        8.6294578982
  O        -7.5209804712        8.3004550776       -7.7470602585
  O         4.8039795473        1.0985457943        9.7220902795
  O         6.2684550407        9.7783971934        8.8738911051
  O        -0.1943618117        4.7350545494       10.1656043053
  O         6.0145534921       -5.9216301489        6.0819639623
  O         4.9313277122       -6.0796547518       -5.7556485925
  O        -3.8671970043        5.4699452445       -7.6437432664
  O         2.5754425004        9.0553037096        9.3907948184
  O         8.3693957503        4.1410449265       -7.8355194028
  O         0.6854818461        6.0638678728       -7.2442868382
  O        -8.5050260919       -0.9423521978       -5.8645347173
  O         9.1859521702        3.3151622467        4.6237972905
  O        -4.8715563527       -4.6240212473       -6.4952193197
  O         4.6641502734       -6.7836441871       -3.0691317742
  O        -8.3408050753        9.4633191829       -5.5794346709
  O        -1.9947854650       10.0477358600       10.3201073162
  O        -6.5008255428        8.4837606189        8.0380152531
  O         3.4751220793       -5.2032698703        9.8294214169
  O        -7.8101551527       -0.6716577670       -1.2444405977
  O        -6.1132276848       -4.2579953964        6.6802836258
  O         0.2940949253       -5.9613963929       -5.7061358910
  O        -6.9077959705       -3.1321829395       -5.7657113695
  O         6.5454049385        1.3463751219        7.9064022327
  O        -8.8049319109        1.6957472278       -5.6106060594
  O         4.2614317389       -3.5013880960       -7.7021910160
  O        -9.4641275077       -3.3064053388        0.8932344208
  O        -8.1067853950        5.8604403243        0.7359375104
  O         4.6189800091        5.9374495272        6.1210061034
  O        -6.6150191894       -8.9506559863       -1.2838757783
  O        -6.7398991478       -8.2547958789        7.9594515990
  O         4.4172774139        8.4632074787        5.6951543369
  O         6.5083925392       -1.7065373319       -7.3711840578
  O         3.2200183518        4.0576656991       -8.6679904151
  O        -1.1839953580        6.0591714740        8.0270781112
  O         6.7880043485       -4.9194087608        8.5082308254
  O        -5.4576623217        0.9126159329        7.2058982564
  O         9.9305989580        4.9729274984       -4.5204174837
  O        -5.7006452713       -4.6157374304        4.1293492125
  O        -7.5017195003       -8.8199865342        3.0618740100
  O         7.2568459272        1.7751395003        5.4530436392
  O         9.5192902438       -1.9624214620        3.0844724497
  O        -0.1680793448        8.5051321331       -7.6261386166
  O         7.2413776160       -7.4182072672        7.9107216870
  O        -7.5156868710        5.7198535657       -2.8067223372
  O         9.0927022961       -3.3151718053       -1.5841013704
  O         6.0869987598        7.2066319751       -3.1226062271
  O         9.1089825491       -5.3458134510       -6.6529403652
  O         5.9834589316       -2.8773575397        9.7814173450
  O         6.1041188227       -8.9941119685        6.2043415434
  O         8.9593333218        4.7921269328        0.5782723207
  O         8.2794598963       -2.7489600194        8.1224900840
  O        -4.8099465462       -1.0261279451        9.1417120719
  O         6.2436547283        3.5510401639       -6.4234207174
  O         6.4114039831       10.1003146610        1.4067679515
  O        -6.1321544700       10.0256139700       10.2670027089
  O         2.1466956124        8.5187422729       -6.5603495922
  O        -7.3412060236       -6.0268384309        8.9840264540
  O         7.1879709473       -0.8491760802        3.6650978040
  O         4.3576285026       -6.2043120311        4.2011894466
  O        -7.3556318008        6.0957928948        7.3329897499
  O        -8.2473297453        3.2641678641        0.0511884985
  O         4.7436920316       -6.5764782486        8.2742117030
  O         9.3554152675       -5.6759244179       -0.3012256980
  O         9.1583852201       -6.6960751952        4.6767959250
  O         6.8047792418       -5.4627696887       -2.4542066529
  O         6.9764516786       -2.6556474022       -2.8553964359
  O        -0.2824854794       -8.2264957586        5.7588200768
  O        10.0401044728        7.1690803849       -6.1978183832
  O         7.3544124619        0.1373656313       10.1650957343
  O         0.5955124329       -8.7742206863       10.2285259125
  O        -2.4021845606       -5.7861215471       -6.2160011813
  O        -2.1553690709        9.4925532077       -6.3514852181
  O        -3.5310618128        5.6234534744        8.8829724960
  O        -7.2527697988       -5.3514551715       -3.4058902999
  O         7.7155392167        6.3540781333       -5.0453212810
  O         2.8833701981       -7.8187353254        9.7883124057
  O        -0.8046873209       -7.7335098961       -7.2314120359
  O         6.7350426013        9.4962836467       -5.1025030932
  O         5.7962357933        9.5128807331        3.7492312376
  O        -0.7349379532       -6.6784033678        9.7644139539
  O        -8.5750097794        8.3017351624        6.3523213125
  O        -0.6763325848       -2.0348904629       10.7811115490
  O        -8.4519460313       -7.5725697021        0.2827521832
  O        -5.3845534863        4.8768468458       -5.1204420593
  O         8.0150887299        3.5059653341        7.3551716983
  O        -5.0219458862        6.6647571627       -3.3041461125
  O        -0.0419215241       -4.1286101399        9.0799125452
  O         8.4490886612       -8.3635922073       -0.1370440701
  O         6.2670892447        8.8873263820       -0.8990683890
  O        -6.2686543293       10.7006273980       -4.1095477460
  O         8.5296038479        8.0918518114        5.2676719613
  O        -3.8696910628        7.9378612018        4.3879547189
  O        -4.1034353554        2.3973593500        5.5023035540
  O        -5.5269399219        9.7717809440       -6.5045139957
  O         8.9295214988       -8.4776041910       -5.1005943165
  O         7.4166077354        7.6864825632        9.8459433345
  O         2.2958486974       -7.9486809638       -6.1619747283
  O        -6.8665019088        8.5431111727       -2.8645766941
  O        -5.7352067737        0.3205404267       -8.2065385444
  O         1.9226862301       -6.7432358126        5.7399903372
  O         6.5920919168       -5.1889171745       -7.5672132478
  O        -8.2884687736        3.0603526239       -3.2725089304
  O        -4.9004976834       -7.8527203466        3.3780907519
  O         8.9097440163       -4.5394450333        3.0249839637
  O         4.2969973569        9.8023490229       -5.8190974240
  O        -8.0778761088       -7.2086380013       -5.3776926452
  O         3.1292065411        1.6177068171       -7.6489549146
  O         6.6666791989        5.9735812223        7.8158479083
  O         5.8123638382        0.7496521736       -7.2003451839
  O         2.4893337113       -5.4247768713       -7.0882952813
  O        10.5218957013        9.7406997543       -2.7781754851
  O        -8.8357610376        4.0006603832        2.5988063631
  O         5.0720389233       -7.1821819772       11.0687302612
  O        -6.5277460282        3.6017843197       -7.1683889404
  O         5.9990438809        9.1491855911       -7.7519088035
  O        -9.0446755134       -8.0531966793        9.2741830616
  O         4.1312008316       -0.9591074807       11.0534308014
  O        -7.8525832155       -3.8544930125        2.8998594283
  O        -3.7413268600       10.1785858296       -4.3801234842
  O         3.6199054732        6.6416862676        9.9409282029
  O        -6.2810235779       -1.6577328090        7.0725688694
  O        -5.2430842312        9.9844120751        5.4454874743
  O         7.5527715519        6.4908196009       -1.0780006689
  O        -6.4031310297        3.5029492504        6.3697424747
  O         0.3200229654        7.5317722481       -5.0326699497
  O         5.7761309092        5.0558405274       -8.5797814703
  O         5.3615867021        5.1220168267       -4.6725315085
  O         9.4052553460        4.8435563102       -1.9896238495
  O        -3.1401114023        6.8561291187        6.4872477502
  O        -1.6187897702       -7.7465462318       -4.7663710237
  O         1.0524342683       -1.8336802973        8.8205955197
  O         1.6316490393       -3.4522098993       10.9163867688
  O         8.3244672545       10.0650747116       10.6278429877
  O        -1.5234015495        4.2487760579       -7.0423562799
  O        -9.2014903451       -8.3156952700       -7.4712913451
  O        -2.9522351656       -8.1538384695        5.3330041974
  O        -7.8335163016        0.5456626258       -3.5468667164
  O         9.0917057474        5.9900733201        3.6437756890
  O        -4.3291056301       10.0563016247        8.3636972079
  O        -3.3662787457        3.4057761164       -8.9701329601
  O        -1.5645531488        6.5330112246        4.3687905054
  O         1.1035797593        3.4531606192       -7.1429044048
  O         8.5787621386        9.8049136504        7.3244676804
  O        -2.8517778983       -3.6846658312       10.6109846942
  O         1.0257505389        6.8822682903        9.4259877618
  O        -6.8465052949       -4.4909098175       -8.2340028813
  O        -8.5808122920       -2.7225009009        7.0078413456
  O        -6.1389387087        7.5161215496        5.6469061796
  O        -3.6249693225       -4.1876365447        5.6201040630
  O        -4.3476689703        3.1647810859        8.0104972871
  O        -8.3719442631        4.6148773838       10.6698319053
  O         7.3650455618       -4.4730640041       -4.8226530957
  O         8.4996213718       -6.6866491398       10.4688579985
  O         8.6818222427        5.2739020917        9.3424530764
  O        -5.9760857972       -7.9691366981        1.0057240337
  O        -8.6715022385        4.0315834261        7.6383807129
  O         6.1943479686       -7.8100971054       -1.0578852739
  O         6.8779379771       -7.6191504351       -6.3934672559
  O         9.0055492090       -6.9722894026        2.0398531460
  O         2.3343208710        6.8384606226        4.8627064507
  O        -9.8610784316       -5.8000880880       -4.0642886379
  O        -6.4530543864       -6.2719454933       -0.9171219602
  O         9.9039739476        7.3578193004       -3.6277082971
  O        -9.6917022853        1.7667622559        6.6511043130
  O         2.6532706726       -5.9756638573       -4.5208657215
  O        -9.4494620998       -3.3791038186       -5.2159787539
  O         9.3839256172        0.4431069260        4.4775669574
  O        -4.9515014144        7.8286865973       -8.1840524890
  O        -2.6954319533        8.0282424970        8.8288621032
  O        10.4175954800        7.6283469082       -1.0135504087
  O         1.3501403032       -8.4925845497        7.7031205227
  O        -8.0784527347       -7.5083056150       -2.7136015110
  O        -8.2514874514        4.9890910983        5.0662829950
  O        -1.0439555816        9.3593278201       -3.9647291401
  O        -4.6465020042       -7.2039028456       -5.9514796405
  O        -4.1289914453        7.1401611130       -5.7297012210
  O         8.2228549295        8.7735106526       -2.2887205745
  O         2.8948458555        7.3445827102        7.4540597048
 Si         3.0893469694       -7.1711233500        4.6409175482
 Si        -6.5742403962       -4.7825428547        9.5471229831
 Si        -3.9196698964        7.0143214507       -7.3159912202
 Si         6.4077573863        1.2929642696        9.5617310401
 Si        -9.4076520586       -4.0676272210       -0.5187413514
 Si        -9.3765086646       -5.8746269186        5.7805094388
 Si         9.0703439696        7.6119638288        3.8134662475
 Si        -7.9907886330        8.0019050720       -6.2319015023
 Si         4.1174564017       -6.7147734842        9.7436889399
 Si        -3.1544637903        4.0580814303       -7.4872070681
 Si        -9.0029376451       -8.4686276863       -5.8618992232
 Si         6.1861915313        6.4849040688       -4.5998052223
 Si         3.5564504985        7.1377589033        5.9197637699
 Si        -7.1804525588        0.7359827386       10.4229189917
 Si         8.1859404793       -5.3682244123       -7.9891827047
 Si         6.2037721832       -6.1552677920        7.6991005538
 Si        -7.2798685240       10.2415704434       -2.8729386473
 Si        -5.0295059625       -4.8567853589        5.5963454036
 Si         4.2859211505        5.1298824817       10.0762452804
 Si        -4.7498289820       -1.0091111586       10.8434823536
 Si        -7.2085702645        7.6441723792        6.8340769870
 Si         2.6662170205        9.8130449606       -5.7067921283
 Si        -5.3827856386        6.5086237969       -4.8833416504
 Si         5.1717004171       -2.2885482188       -8.2497287122
 Si         7.0720357930       -8.9589267173        7.5344659207
 Si        -7.2143167614       -5.0809228227        3.7068526886
 Si         5.0709275120        3.6706190779       -5.3584107519
 Si        -1.6801055394        8.8848231348       -7.7330193753
 Si        -8.2162230658       -2.3607776157       -5.0927221172
 Si         5.3763833546        5.0773690511        7.2174335742
 Si         4.2785635815       -5.8214599054       -4.3294987243
 Si         6.7615018092        2.4959534879        6.8382388523
 Si        -8.7802254874        4.6474963280       -3.1130622915
 Si         9.2121164211       -2.9917008441        6.7403868421
 Si        -6.7779339142       -5.0341879155       -1.9442423374
 Si        -2.1467551875       -2.3996786895       -7.9814757552
 Si        -6.4833200966        7.0124177456       -2.4903636942
 Si         9.4581323142        4.1671214534       10.2222265264
 Si        -8.0582911004       -7.3248956787        8.2645443780
 Si        -2.8805670484        9.5733486763        8.6997236368
 Si         0.4645798667       -2.8004298966        9.9094950495
 Si         8.6322748946       -1.1099458939        4.1769493956
 Si        -5.1397221189        2.4872513368        6.7265201124
 Si        -6.9663184818       -7.7457420092       -0.2983841674
 Si         2.9556851124       -4.3306367297       -8.2376513550
 Si        -5.9577318356        9.8793173632        8.6478448076
 Si        -8.4404436990       -0.7358874186       -2.7157601933
 Si         5.6349897965        8.9397886070       -6.1914952104
 Si        -8.3615756747       -6.5027762405       -3.9219238547
 Si        -7.5502237811        8.8869531909        2.7254555549
 Si        -5.2894088213        8.4510013624        4.7289606567
 Si         0.4692733859        8.7323934562       -3.8768113693
 Si         6.1887157466       -6.9553339029       -2.5066172824
 Si         7.8637931397        6.5784070915        8.7228640505
 Si         8.9720928172       -4.6807486580       -5.1405320505
 Si         7.4111454263       -3.5920256835        9.2463623440
 Si        -2.1719060090       10.1275242708       -4.8252779241
 Si        -4.5554795504       -7.9476122264        4.9873499396
 Si        -0.7268573884       -7.9890262172       10.5447730691
 Si        -6.9672967273        3.7913005454       -8.7050103304
 Si         1.8592381824       -6.3726608466       -5.9419998288
 Si        -6.0464522966        9.0287167519       -7.8788706448
 Si         9.3725533122        6.4512781212       -4.8834705378
 Si        -7.6310115471        4.6548967369        6.5764922676
 Si        -0.7988909637       -5.4559987170        8.6643599058
 Si         8.9377814741        1.7768484725        5.2314883970
 Si         9.3976465570       -7.1395560726        0.4496652626
 Si        -5.0465040661       10.7878320540       -5.2350718339
 Si         0.1839226479        5.5519072080        8.8056790157
 Si        -2.6884515875        6.6299892192        8.0277856172
 Si         6.8001395524        3.8774044263       -7.9216980646
 Si         5.7954096319       -6.5405114511       -6.9747122998
 Si         2.7845739661        3.2388691957       -7.3825341837
 Si        -1.1040040656       -6.7578711586       -5.9454532665
 Si        -5.5732703223        3.4739652610       -5.9049368793
 Si         6.9636877339        7.7590091672       -1.8896374192
 Si         8.5090981647       -6.1269106671        3.2675775354
 Si         6.9703491715        9.1905423931       10.2960444392
 Si        -6.0345166347       -3.6713972921       -7.1127488994
 Si        -9.1427525128        0.4119460755       -6.5314200195
 Si         0.7496862168       -7.3656480661        6.6735552150
 Si         8.2321933391       -1.9855224184       -1.8830593636
 Si        -4.2812972655        4.2094157107        9.2847174031
 Si         4.4036093051        0.6252387975       -8.1297072414
 Si         0.7670680202        7.5897301755       -6.6245685871
 Si        -7.0383217034       -3.0479507139        7.3436105249
 Si        -2.4919846915        7.5663918221        5.2363871172
 Si         5.0306700650        9.8106080371        5.1610891431
 Si        -3.9528932211       -5.9528346930       -6.7816188295
 Si         7.3763918313       -8.4322318925       -5.0198375971
 Si         1.8246982029       10.5050771559        9.1833170116
 Si         6.9353578534       10.3126193840       -0.2344210580
 Si         7.1402292670       -0.1603487100       -7.5989512803
 Si         0.0133676801        4.5665837548       -7.6102779932
 Si        -9.3536874328       -3.4469689005        2.5155326397
 Si        -3.4619345861       -4.9803111320        9.8478893869
 Si        -7.7891422018        1.9684378427       -4.3581623847
 Si        -7.7358218347        7.2812503160        0.0284227366
 Si        -6.3242686609       -7.7862391848        2.5691650756
 Si         6.4734662833        8.7987910644        2.4605044708
 Si        -1.7279155472       10.4506985098        6.0735688428
 Si         8.2432468583        5.0092712987       -0.9127102558
 Si         5.7359318865       -5.4784290082        4.5568312825
 Si         9.3722055596       -8.0602708255       10.5209881317
 Si        -9.8797347389        2.9591505370        7.7970294304
 Si        -9.3849572918        4.5871259828        3.9376034389
 Si        -5.9274940372       -0.3909940142        8.1323269720
 Si         9.2037255763        8.4124892133        6.7097014221
 Si         6.5356609210       -4.1752573618       -3.4451277890
 Si         9.7958062938        8.4068737912       -2.3538664578
 Si        -8.8263896993        4.4076863498        0.9822423559
 Si         2.5128504380        7.4465808043        8.9895535609
 Se        -2.4265724907       -0.6207233886        3.4440957710
 Se        -1.4689418641       -2.9459007811       -5.7891444806
 Se        -4.8231511260       -3.9011119542       -1.6998499504
 Se        -1.8358353616       -4.8251210464        1.9620403983
 Se         1.2918063043       -4.7538397788       -1.4585308885
 Se         1.8787525943       -7.2421369854        2.6379163738
 Se        -6.1051400931       -0.3819570640        1.8841734719
 Se        -4.0737062821       -0.0766198453       -4.9590528848
 Se        -4.6736366676        1.8271530769       -0.6506196017
 Se        -2.0387755345        0.7090059880        8.0194518053
 Se         3.7057316060       -0.3973454811       -1.3853648240
 Se        -2.0201099453       -1.4804924811       -0.9880484204
 Se         1.1882290332       -1.4693186039        1.4305969220
 Se         0.6435307863       -3.2475178565        5.3929022404
 Se         5.2239777080       -4.4466243641        0.2404400502
 Se         5.6169935412       -3.1987703887        4.2851007784
 Se        -2.0126723935        5.3575049883       -2.3552909756
 Se        -4.1954358173        5.2633731218        1.9121794887
 Se        -0.5893559394        2.8117566794        4.2654618255
 Se         0.0218118768        1.0872871688       -3.0407260051
 Se        -0.6485120743        2.5588238249        0.2963358583
 Se         0.6103183200        5.8464760933        1.8370792753
 Se         1.3489414619        4.4072975799        7.2641266138
 Se         5.0141606091        1.6465430316       -4.2401691727
 Se         3.6988694583        2.4726356454        2.1537239785
 Se         1.7218285894        0.7543326529        5.3833054680
 Se         3.8940510768       -0.3993122638        5.7624960469
 Se         7.5184943106       -0.8103877029       -0.0603678787
 Se        -2.0594412260        9.0643838884        0.5465185090
 Se         2.8504393596        9.4345470228        0.8011031699
 Se         2.9069161151        5.0925683015       -1.6771229905
 Se         5.3623502010        6.8182312998        2.3369894871
 Se         6.5244075682        3.6669480210       -1.4465547794
 Cd        -6.2201782617       -2.0100774774       -0.2428271255
 Cd        -4.3431427393       -2.3160383614       -3.7747819160
 Cd        -2.8256299498       -3.2506026328        3.8245089641
 Cd        -2.8494521299        0.6397083410        5.5520971586
 Cd         3.5346552817       -3.0730963630       -1.2439390592
 Cd        -0.5337755280       -3.5561196630        0.0256360985
 Cd        -7.1626845705        1.4241572312        0.2154362669
 Cd         1.1263172633        3.1694429582        2.1613801896
 Cd        -3.4648535062       -0.2850527893        0.8679944745
 Cd        -0.4380965821        2.6399104961        7.0914492024
 Cd        -1.1534043649       -0.7697699531       -4.7499658875
 Cd         5.2337218057        0.1160885750        3.4286822728
 Cd         0.0827376491       -5.2316905424        3.6665953261
 Cd         3.2107543173       -2.8683525685        4.9869985491
 Cd         3.5353982874       -0.1481260750        1.1954192601
 Cd         2.7887106159       -5.4770639639        0.6189966810
 Cd        -1.6635130822        7.6699273168       -1.5026490843
 Cd        -3.2845307793        4.1064129605       -0.4026554571
 Cd        -3.1651611000        3.6789172352        3.6414341488
 Cd        -3.9384139023        1.1607054120       -2.8414225947
 Cd         0.2636329114        4.4458880352       -1.4070414471
 Cd         0.1015423489        0.1807531695       -0.4568219697
 Cd         0.3648086897       -0.3633948652        7.4572642180
 Cd         2.5570088533        1.0697529609       -3.4428204477
 Cd         6.0042138656        0.8534058727       -1.6150546878
 Cd         0.3753736506        5.5499344473        4.7768190203
 Cd         5.4056987237       -2.1516143933        1.5647857395
 Cd         0.2481018376       -0.9122778037        3.7950627275
 Cd         2.5900462166        7.7104734882       -1.2083449153
 Cd         0.3654559830        9.8857705707        0.9856255514
 Cd         2.6880185332        7.2845921880        2.5765884299
 Cd        -1.9336956743        6.7224231092        1.9677863006
 Cd         4.7267396904        4.2646449116        0.3105663302
