402
 i =     6800, time =    13600.000, E =     -5882.3689287101
  O         6.5008430670        1.9007947020       10.5012885698
  O        -5.4170276452       -3.5264189688       -7.7072261022
  O         9.3885983430       -5.6286721812        6.7042649185
  O        -7.7650630062        7.5224156453        1.3490122112
  O         1.6557170165        8.5766243594       -3.9017267421
  O         8.0570273551        7.1313843126        2.9525972330
  O        -6.1137502081        7.5530325593        3.5451480140
  O         5.1646971620        6.3619346701       -5.2907409356
  O        -8.1116302731       -5.3582531556       -0.8197937686
  O         8.7676103354       -2.9028468973        6.0735444364
  O         9.2735325642       -2.2407928121       -2.5704067975
  O        -3.2164351666       -2.2565779327       -7.8253338126
  O         8.3676491533       -0.9235920523       -6.5169411503
  O        -4.9923004437       -5.8602636588        9.7291347569
  O        -7.1843906749       -1.0320914539        9.4292137605
  O        -6.4462633197        5.9997283622       -0.4633524326
  O        -0.0328612225       -7.0992164052        7.4956154100
  O        -6.5677620470        1.2643594613       -4.9446613214
  O        -1.9143352080        8.1059193756        5.7183904687
  O         8.3702811016       -5.1781946183       10.7149594895
  O        -7.9416500587       -6.6186789438        5.3224707887
  O         6.7519097476       -7.0224967357        3.9242731223
  O        -8.4576620543       -0.5002330036       -7.6089915546
  O         4.0569842183       -9.6488212331        4.9836051385
  O        -7.6549472896       -2.9535182554       -3.2821728312
  O        -8.7608845144        7.1741767707        3.7349110113
  O        -2.9588286467        7.2032607712       -7.0968181241
  O        -6.9029889632        1.2186785993       10.5564887743
  O        -5.1804171651       -7.6236646688        6.2691036435
  O        -8.7682686089       -8.0259122982        7.2656550368
  O         0.6258624851        6.8822015376       -2.0293956712
  O         3.5805177892        2.7059708810       -5.7468151967
  O        -7.3403655060       -7.3572224100        2.9110219906
  O        -3.8194864649       -7.1459815042       -7.9551937326
  O         7.0465264728       -8.7546169428       -3.0997172035
  O        -7.1192033018       -4.5086224286        9.3643479588
  O         8.9753962026        6.0588901287        8.0770682573
  O        -4.0437281046        2.3190775590       -5.9219355128
  O         4.8933719306       -5.2889394287       -3.3894640210
  O        -7.1526796852        5.9592334646       -5.1293338855
  O        -5.8269956963        3.4898888569        9.9825959782
  O        -1.9737126978        9.5208879758        7.9477282551
  O         5.7172303688        2.7077118260        6.7815661905
  O         4.3736478115        3.4996901180        8.7698985085
  O         9.2079837433        1.6593416666        9.7389585110
  O        -2.5512336956       -6.4814007323        9.0130151783
  O        -7.7349500608        7.3071714658       -7.3303097227
  O         4.6544542851        0.1809544200        9.9423745943
  O         6.2238637349        8.5740559600        9.2000538855
  O        -0.0957512059        3.5940961503       10.6057221655
  O         6.1988377766       -7.3698711718        6.4756696505
  O         4.8182537608       -7.0337692884       -5.3192738276
  O        -3.4061367311        4.6283857064       -7.2877904712
  O         2.6970809427        7.9931724594        9.6708788003
  O         8.3191545055        2.9975504822       -7.5253647027
  O         0.5831077960        4.7873946975       -6.4803519682
  O        -8.7498506477       -2.1192149249       -5.5901515542
  O         9.3702954933        2.2118708264        4.8432007353
  O        -4.8466475603       -5.5117052433       -5.9999289382
  O         4.5776740906       -7.8123980111       -2.6770112379
  O        -8.4595990886        8.3846448762       -5.1667198418
  O        -1.9109825648        9.1555201721       10.7964144256
  O        -6.2307745904        7.3519429624        8.5677642141
  O         3.4025550029       -6.2513262821       10.2130123185
  O        -8.0476831783       -1.6144922971       -0.9477105601
  O        -6.2676126734       -5.2856242527        6.9843483463
  O         0.2763972998       -6.8540310558       -5.2667428407
  O        -6.9890435961       -4.1394681587       -5.6349866349
  O         6.6906130410        0.5580303473        8.2616711416
  O        -9.1760629609        0.5205043512       -5.3392079851
  O         4.3083770439       -4.4256152199       -7.4321882366
  O        -9.5838684018       -4.4940084375        1.2627995545
  O        -8.1897500302        4.8678418869        1.0426942373
  O         4.4154630779        4.8688980909        6.4830757657
  O        -6.5243654587      -10.0850307067       -0.9841470600
  O        -6.6810989431       -9.4400958684        8.3132384150
  O         4.3512546791        7.3563186591        5.8721410955
  O         6.5192667000       -2.6472129329       -7.1697901556
  O         3.3432313301        3.0829092556       -8.2357428681
  O        -1.1613120524        4.9398709273        8.6310566366
  O         7.0495521413       -6.0264412455        8.7405115102
  O        -5.6267446585        0.0496446940        7.6299164471
  O         9.9619317260        4.0349508091       -4.3893784625
  O        -5.7146914322       -5.7797252959        4.3539799188
  O        -7.6572569884       -9.8037809338        3.2943488444
  O         7.4230203571        0.8277782601        5.7185353405
  O         9.4665708113       -3.0039477026        3.4409739317
  O        -0.4360091935        6.9511052054       -7.5630258442
  O         7.4340592200       -8.5935023466        8.2850202745
  O        -7.6614721017        4.6164007316       -2.3599030995
  O         8.9587169063       -4.4614027785       -1.1445023430
  O         5.8774208017        6.3079129503       -2.6470131285
  O         9.2909214288       -6.1882158342       -6.2036026825
  O         6.0862557258       -3.7916839065        9.8510609906
  O         6.1797064673      -10.2629825870        6.6583223563
  O         8.9271895697        3.7969029040        0.8620035183
  O         8.5889748382       -3.7870026247        8.5171395990
  O        -4.7090015903       -1.6386226683        9.5424017472
  O         6.2196281415        2.6827420651       -6.2052012633
  O         6.3477603559        8.9577664289        1.7946131321
  O        -6.4145548212        9.0155255393       10.6668050289
  O         1.7576221533        7.6975297196       -6.4107255286
  O        -7.4172737715       -7.0744969310        9.3921259922
  O         7.1549587617       -2.0137180573        3.9980794517
  O         4.1625703084       -7.0531493117        4.7023514886
  O        -7.2456915508        4.9466089064        7.6651761751
  O        -8.4945356351        2.1727926584        0.4146119028
  O         5.0008846398       -7.7846056238        8.8518650716
  O         9.1330916184       -6.8276474229        0.0560765469
  O         9.1118721299       -7.6390532267        5.1135556806
  O         6.6285758273       -6.3921994669       -1.8011140588
  O         6.7291305224       -3.6878198386       -2.2718108479
  O        -0.3939001172       -9.0725460902        6.0992614071
  O         9.7528583090        6.1402852734       -6.0627863684
  O         7.2568693746       -0.5933776586       10.5015777290
  O         0.7179203177       -9.8938179794       10.5938291789
  O        -2.4612997977       -6.6321143287       -5.7326268556
  O        -1.3960059419        8.8335132537       -5.9581498931
  O        -3.8152491339        4.7347723152        9.1043848490
  O        -7.1347987168       -6.3413511175       -3.2322726489
  O         7.6694469260        5.4652187227       -4.4899622814
  O         2.9867828612       -8.8335187517       10.2273029286
  O        -0.8569383231       -8.2364091718       -7.1217668341
  O         6.5682306194        8.5057800004       -4.8278536791
  O         6.1441045239        8.2743293765        4.1795024342
  O        -0.7672651304       -8.2023324384        9.5725973616
  O        -8.4871967619        7.3284076227        7.1786486686
  O        -0.7409074506       -3.1726687097       10.7257340576
  O        -8.4616858071       -8.8526825672        0.6014755126
  O        -5.9097188886        3.6802582352       -4.5777328164
  O         8.1568889293        2.6055342797        7.5293661168
  O        -5.2776946234        5.5839318106       -3.0322893795
  O        -0.2619294240       -5.5159194234        9.6580933078
  O         8.3833457512       -9.5425364925        0.1935807257
  O         6.3517243379        7.9425048712       -0.5080727656
  O        -6.0895941952        9.3587747536       -3.7599194638
  O         8.6947644585        7.0871455765        5.5498535500
  O        -3.9934798114        6.7614515535        4.7101530464
  O        -4.1367347264        1.0953895384        5.8172522273
  O        -5.4210075380        8.6906643733       -6.3169488807
  O         8.8569268387       -9.5625133990       -4.9151194843
  O         7.3683654291        6.4924733114       10.2214403892
  O         2.0719393668       -8.8423369377       -5.6791650647
  O        -7.0964475068        7.3212937225       -2.5302372927
  O        -5.7981290819       -0.8862445187       -7.6105030309
  O         2.0956181533       -7.9765358392        5.9773944122
  O         6.7828790194       -6.2644860210       -6.9220993908
  O        -8.3208556587        2.1405699279       -3.1545861980
  O        -5.1033079703       -8.6731257115        3.7767713254
  O         8.9361052392       -5.5325322734        3.4818218148
  O         4.0176092073        8.7529640257       -5.5824666532
  O        -8.0659587803       -8.4013944167       -5.0611162255
  O         3.1710280945        0.6117183356       -7.1408966541
  O         6.5082035681        4.9639412239        8.2137587655
  O         5.7224782149       -0.2506331985       -7.0407299410
  O         2.4849261507       -6.2798780290       -6.6466293229
  O        10.4242068773        8.7269092938       -2.2488096495
  O        -8.7006101909        3.1168131178        2.8535517130
  O         5.1014023769       -7.9480374898       11.5562064072
  O        -6.4543823349        2.9841251328       -6.9264125373
  O         5.9097962664        7.9738493499       -7.4427361588
  O        -8.9773030895       -9.2825385985        9.5989179433
  O         4.1631747413       -2.0002368919       11.1651737377
  O        -7.9745841561       -4.8097593646        3.3604920331
  O        -3.5378079988        9.0364599785       -4.4313375261
  O         3.5689077667        5.6183923710       10.3310685943
  O        -5.9942424565       -2.6775422736        7.5834551882
  O        -5.1721973705        9.1207157243        5.6426997870
  O         7.4467963606        5.5146508631       -0.6124331467
  O        -6.3580715241        2.5617805436        6.6385621089
  O         0.0985293694        6.5493940525       -4.7435349202
  O         5.8334596826        4.1486637909       -8.3044997609
  O         5.4506172448        4.0486926729       -4.1495010505
  O         9.3008542349        3.8405912314       -1.8346840613
  O        -3.0633272701        6.0099657615        6.9975372913
  O        -1.4661085788       -8.5693676239       -4.4145945968
  O         1.1202886335       -3.4008488006        8.6904491862
  O         1.6059331794       -4.5154888773       11.0713685816
  O         8.2431593685        9.0138729088       10.8103917190
  O        -1.5019953515        2.8631943154       -6.6583248511
  O        -9.0320911480       -9.3385788577       -7.1452350412
  O        -2.9068484411       -8.7811590651        5.6290856075
  O        -7.9954203301       -0.4103329795       -3.1780953667
  O         9.1430836324        4.9163306424        4.0146752345
  O        -4.2858609418        9.0677658838        9.1130361673
  O        -3.4461614905        2.4742280283       -8.7008938543
  O        -1.6056372300        5.5747307067        4.7812911450
  O         1.2032944183        2.4035066042       -6.7038042121
  O         8.6232548874        8.6429047111        7.6637353006
  O        -2.7687492023       -4.8466489366       11.1352401552
  O         1.0122036148        5.9145074836        9.5478946409
  O        -6.8757320555       -5.7091427319       -7.7727050103
  O        -8.3771677787       -3.6274578339        7.1878383046
  O        -6.2285576064        6.7771164062        5.9850264088
  O        -3.7120224773       -5.2886456822        5.9346630161
  O        -4.3333565227        2.1827106057        8.2826036566
  O        -8.4595512339        3.2918357084       11.0477461862
  O         7.4647391526       -5.4782595001       -4.1069211521
  O         8.6341627633       -7.7264296033       11.0439436693
  O         8.7077344221        4.2939831879        9.7982043636
  O        -6.0118210575       -8.9683183047        1.3212103236
  O        -8.5385985129        2.8409068714        8.0694835297
  O         6.0381711056       -8.8140199817       -0.5710581628
  O         6.7265153324       -8.6249009606       -5.9545932729
  O         9.0050817731       -7.9221068099        2.4022653352
  O         2.2417002194        5.8730703280        5.1810534648
  O        -9.7556963911       -6.8852864136       -3.6017033117
  O        -6.4987547582       -7.3974528928       -0.6727030387
  O        10.0118975687        6.4375621621       -3.5782343270
  O        -9.6779022942        0.5785499878        7.0848461232
  O         2.6098768630       -6.6793066808       -4.0855758506
  O        -9.4536554971       -4.3825874549       -4.4440267272
  O         9.4699263354       -0.6858994515        4.8373592976
  O        -5.1827429565        6.6024957793       -7.8763827778
  O        -2.5677270916        7.0521448427        9.2256323110
  O        10.2175046548        6.6183268529       -0.7071030778
  O         1.4460581266       -9.2446266603        8.1394231760
  O        -7.7800966931       -8.7202265036       -2.6094909191
  O        -8.1868793407        3.8588541706        5.4381147141
  O        -1.0420242183        8.4682967368       -3.4636265671
  O        -4.7869925434       -8.2356921983       -5.5782402932
  O        -4.4184884870        5.9317351050       -5.3436153810
  O         8.1946509896        7.3449724824       -2.2897596220
  O         2.8238985391        6.2324263835        7.7513085544
 Si         3.1908995669       -8.2905414868        4.7987452845
 Si        -6.5889692154       -5.8694004355       10.0442621837
 Si        -4.0001522196        6.0658177408       -6.9091753855
 Si         6.2532555370        0.4462585929        9.7624280211
 Si        -9.5924724073       -5.4051705876       -0.1129450235
 Si        -9.2555023576       -6.9841052691        6.1774344784
 Si         9.1482525043        6.5680679563        4.0049043094
 Si        -8.2702504365        6.9537322880       -5.8555976314
 Si         4.1167778816       -7.6919418247       10.2649249793
 Si        -3.1252605523        3.0408119637       -7.1601852414
 Si        -9.0593391574       -9.5587389087       -5.5518521299
 Si         6.0413838790        5.5811189945       -4.1052220929
 Si         3.4181793497        6.1169940249        6.2469718161
 Si        -7.1619656167       -0.3463743150       10.9182616202
 Si         8.3354190703       -6.2742603736       -7.4911198643
 Si         6.3817450594       -7.3711417824        8.1099226461
 Si        -7.2627297091        9.0523576189       -2.5084598406
 Si        -5.1627360339       -5.9810597461        5.9022978312
 Si         4.3209251891        4.1382729191       10.3966267278
 Si        -4.7671765021       -2.1083643314       11.1336271553
 Si        -7.0733613436        6.5769808205        7.3675369824
 Si         2.3986313886        8.8767168189       -5.4062794421
 Si        -5.7199774299        5.3100170207       -4.5761447414
 Si         5.2823369033       -3.2541474717       -8.0683384164
 Si         7.1417083784      -10.1418375373        7.9826939574
 Si        -7.2527780571       -6.1428436087        3.9701159862
 Si         5.1285289626        2.6811269770       -5.0408339702
 Si        -1.6779610942        7.9533026772       -7.3176979898
 Si        -8.1801282406       -3.4307491325       -4.7824948809
 Si         5.2884065142        4.1135085004        7.5669228527
 Si         4.2175146940       -6.7117463975       -3.8644067418
 Si         6.8856713096        1.6694278300        7.0633451750
 Si        -8.8468872882        3.6552492993       -2.9135929796
 Si         9.4105213049       -4.0356035723        7.1444246034
 Si        -6.7429670647       -6.1588223338       -1.6608222707
 Si        -2.1121908096       -3.4313108567       -7.8472291575
 Si        -6.5134709004        5.9087761261       -2.0526211097
 Si         9.3914366329        3.0235424350       10.6413163430
 Si        -7.9369267187       -8.3903669893        8.5927596349
 Si        -2.7281787039        8.6164873397        9.0634727409
 Si         0.4851767703       -4.0558303038        9.9784294560
 Si         8.6759117535       -2.1799617857        4.6054054377
 Si        -5.0990304358        1.4634149222        6.9944235994
 Si        -6.9097803842       -8.8303624318       -0.0227229620
 Si         2.9682732640       -5.3120500135       -7.8784323185
 Si        -5.9557137779        8.8350926291        9.1873186420
 Si        -8.5349815856       -1.7377745926       -2.4509432781
 Si         5.3701397213        7.8801563428       -5.8279442394
 Si        -8.2060777933       -7.5975334325       -3.6364404822
 Si        -7.5682159924        7.9372919315        2.9689988610
 Si        -5.3632589832        7.5598525766        4.9552822917
 Si         0.3683605868        7.5600817685       -3.4876451420
 Si         6.1190963182       -7.9982179622       -2.0242496776
 Si         7.8556181584        5.4218778685        9.0560728837
 Si         9.0550954113       -5.7068718727       -4.5595897450
 Si         7.4996255693       -4.6438107128        9.4453612088
 Si        -1.9390703112        9.2781723546       -4.5212904925
 Si        -4.5628500438       -8.7782321619        5.2971720831
 Si        -0.5776261535       -9.0145491012       10.8979301744
 Si        -6.9466599275        2.7646660253       -8.4222740049
 Si         1.8576728227       -7.2291893463       -5.4379028513
 Si        -6.2361733472        7.8390391933       -7.4816737528
 Si         9.2719170919        5.5234576806       -4.6173183212
 Si        -7.6063552814        3.5436020202        6.9368962549
 Si        -0.9175144788       -6.7318028323        8.8575590235
 Si         9.0828654282        0.7005333873        5.5711026229
 Si         9.3663207181       -8.3273599488        0.8407350459
 Si        -5.0411990639        9.5839809966       -4.9676396692
 Si         0.2896554259        4.4599817534        9.2510860606
 Si        -2.6150660592        5.5914938548        8.4518369145
 Si         6.7155651206        2.9586162452       -7.7118386314
 Si         5.8306218444       -7.4334206476       -6.4624300623
 Si         2.8104688107        2.1830196760       -7.0280257060
 Si        -1.1271533068       -7.5700974297       -5.6061220702
 Si        -5.7394334816        2.4888717659       -5.6350021523
 Si         6.9578082621        6.7081779203       -1.4802916474
 Si         8.3973570121       -7.0758753771        3.7031267513
 Si         6.9382959914        8.0737183912       10.6160172109
 Si        -6.0609703655       -4.7304796381       -6.8291647084
 Si        -9.3873391199       -0.8076784812       -6.2630613372
 Si         0.8309753259       -8.3476554302        6.9409839886
 Si         8.2005726876       -3.0949997731       -1.5619520516
 Si        -4.3396270976        3.2323409378        9.5045362191
 Si         4.3137666868       -0.3627783469       -7.9178968194
 Si         0.6048666771        6.4696059144       -6.3004823050
 Si        -6.9608050735       -4.0120516463        7.7991924550
 Si        -2.5741789272        6.6378669249        5.5608358205
 Si         5.2110015020        8.6444129925        5.4231679324
 Si        -3.9936031270       -6.9495622905       -6.2741578720
 Si         7.3041372766       -9.3800167603       -4.5922240197
 Si         1.9743113458        9.4495821297        9.5144327572
 Si         6.8035409772        9.2958316457        0.2721685972
 Si         7.0282995360       -1.1347548771       -7.3465304967
 Si        -0.0028887767        3.4267624277       -7.1452457538
 Si        -9.4450029715       -4.4664145045        2.8663025074
 Si        -3.4352777261       -6.0707605638       10.2453002087
 Si        -8.0342769601        0.8445752911       -4.1903326149
 Si        -7.9435434889        6.3201074185        0.3265390476
 Si        -6.5242531528       -8.7189734741        2.8061953423
 Si         6.5371465307        7.6051749685        2.7387152921
 Si        -1.8147033238        9.6844686481        6.2849683637
 Si         8.2448261094        4.0125887934       -0.6074513967
 Si         5.6934637817       -6.5833049314        5.1060670329
 Si         9.4313064772       -9.1558643473       10.9175659347
 Si        -9.8798369062        1.8808966727        8.0812198732
 Si        -9.2693340787        3.5580360715        4.2949970249
 Si        -5.8973578397       -1.2872286865        8.4492573924
 Si         9.3034584473        7.2796700716        7.0389663520
 Si         6.4298536133       -5.1912857724       -2.9051283669
 Si         9.8477297409        7.2278706023       -2.1705801480
 Si        -8.9151957141        3.4498218622        1.2600549763
 Si         2.5589005420        6.4268976247        9.2810839084
 Se        -2.3146023573       -2.0561542702        3.6247134132
 Se        -1.6112197672       -3.7201549798       -5.4694884269
 Se        -4.8858772900       -4.7482624778       -1.3707599123
 Se        -2.0063621192       -6.0419746902        2.0337840463
 Se         1.4345856050       -5.2376248726       -0.3426779644
 Se         2.0124155431       -8.1996517859        2.7740252894
 Se        -6.3471904177       -1.6581842652        1.9258128833
 Se        -4.1099043538       -0.8689663346       -4.2222423762
 Se        -4.6164787545        1.1106112165        0.4419412759
 Se        -2.0606364012       -0.6370496595        8.2373066813
 Se         3.6970529762       -0.7612776626       -0.9035269430
 Se        -2.4286613538       -2.4981371544       -0.6274866951
 Se         1.2986783680       -1.6513924233        1.4384958276
 Se         0.5467254564       -4.3560515439        5.2252813242
 Se         5.3547524992       -4.6298556275        1.1401104235
 Se         5.6361571947       -4.3579604931        5.4348432527
 Se        -2.2806448865        4.1857551657       -2.0805434931
 Se        -4.0952735677        4.1655128928        2.4358807277
 Se        -0.6099417334        1.8622209608        4.8688092012
 Se        -0.0001318857        0.7180889391       -2.9780968243
 Se        -0.9614394309        1.6444727519        0.8795330852
 Se         0.4798365680        4.9960413479        2.1760688643
 Se         1.3507785914        3.0345262214        7.8008464167
 Se         5.2014937026        0.7161922327       -3.9698124962
 Se         3.6256234481        2.1351750994        3.0212495150
 Se         1.7930775305       -0.3772139607        5.9672506049
 Se         3.8394735189       -1.5031963560        6.5864923052
 Se         7.8135993550       -1.5487188424        0.0717328535
 Se        -2.1659946783        8.1215290984        0.8987228953
 Se         2.6706263473        8.0942846054        1.0031373868
 Se         2.6241183404        3.5747849827       -1.1997839335
 Se         5.4076201892        5.8061882663        2.2120495931
 Se         6.3807070145        2.6729205293       -0.9875441511
 Cd        -6.7934878378       -3.1958833441       -0.1367022859
 Cd        -4.1564499226       -3.5558514724       -3.7380493418
 Cd        -2.9606496391       -4.7112348354        4.0285682109
 Cd        -2.6551742877       -0.6328685170        5.6406079445
 Cd         3.2281569947       -3.2803988779       -0.0754750918
 Cd        -0.7366487391       -4.2354369865        0.5520179491
 Cd        -7.5953133874        0.3885332130        0.7528471692
 Cd         1.0360448561        2.4097839902        2.2193031141
 Cd        -3.7326600388       -1.4328090901        1.4498331981
 Cd        -0.7408952561        1.5183691535        7.7861250059
 Cd        -1.3984659284       -1.2671722067       -4.3648279156
 Cd         5.0429548405       -1.1043960928        4.3492290334
 Cd         0.3805377678       -5.9921002600        3.2217334235
 Cd         3.0858508519       -4.0605076935        5.6954828433
 Cd         3.6305440308       -0.3053117133        1.9559403317
 Cd         3.1602850624       -6.0974778650        1.6159436653
 Cd        -1.6553938277        6.5759560417       -1.2612759401
 Cd        -3.1248947567        3.1299463176        0.1976053996
 Cd        -2.9931816640        2.5268730037        4.0836857808
 Cd        -4.0361186779        0.1509827231       -1.8305573105
 Cd         0.0924334904        3.0328385956       -1.1223756344
 Cd        -0.3880614580       -0.6722085155       -0.3975680424
 Cd         0.2713207601       -1.6523001264        7.8065827607
 Cd         2.7396808523        0.9035227405       -3.0171784517
 Cd         6.1145416450        0.0722233795       -1.1467232915
 Cd         0.4992480758        4.3755579968        4.9335118940
 Cd         6.0828472631       -2.2843365364        2.0969787803
 Cd         0.5338022687       -2.0162072768        3.9305431967
 Cd         2.3390048274        6.0463454492       -0.7162239639
 Cd         0.2614025068        8.0986040337        1.0151912198
 Cd         2.8847369903        6.3101368871        3.0029024606
 Cd        -2.1028247228        5.7930683271        2.4233657361
 Cd         4.5649883448        3.0665585908        0.9101557859
