402
 i =     5700, time =    11400.000, E =     -5882.4074063376
  O         6.6281653637        1.2286480618       10.6690743575
  O        -5.4582785920       -4.0171606510       -7.4675445068
  O         9.1115752155       -5.9254557727        6.8495728056
  O        -7.5469732294        6.8451741007        1.5894799944
  O         1.6411854229        7.9985351819       -3.6918093201
  O         7.8427891324        6.7010424071        3.3249138663
  O        -6.2807302174        6.9268726758        3.9298625172
  O         5.1503163836        5.7450082040       -5.1987322000
  O        -8.1026570836       -6.0169067661       -0.7590774493
  O         8.5659180684       -3.3381034497        6.0738436890
  O         9.0402526237       -2.6468147270       -2.4131521972
  O        -3.2842954968       -2.6643127390       -7.5795698008
  O         8.2941817224       -1.6130545430       -6.2806686430
  O        -5.1642869397       -6.4680615698        9.9138288733
  O        -7.2737162499       -1.4936867076        9.6061471279
  O        -6.4853473488        5.4949172666       -0.5082561903
  O        -0.3416110954       -7.6703546722        7.8252643755
  O        -6.6222569095        0.7474893543       -4.7820057067
  O        -1.7666548661        7.4425645716        6.0127584891
  O         8.3646547226       -5.5111723190       10.7577226241
  O        -8.2098716248       -6.8120630073        5.4988350876
  O         6.6507660978       -7.5878963398        4.0478630974
  O        -8.7773052009       -1.1632443389       -7.6200477609
  O         3.5323387253      -10.2249869496        5.2635742302
  O        -7.9390745958       -3.5133226286       -3.1549395905
  O        -8.8610875922        6.5212196890        3.8512543132
  O        -2.8061592023        6.1541298512       -7.5271207506
  O        -7.1037336980        0.6777088181       11.1072339038
  O        -5.1778118090       -8.0396263166        6.1992321189
  O        -9.0758741953       -8.2656772693        7.5493294211
  O         0.4289498636        6.5339442505       -1.7631919398
  O         3.4039783358        2.0796184751       -5.6141311601
  O        -7.2582683323       -7.7662210631        3.2073140243
  O        -3.7597142721       -7.7629762840       -7.8255255862
  O         6.8651341154       -9.5781632059       -3.0646213116
  O        -7.2369840318       -4.9397440241        9.4640561273
  O         8.6462435105        5.5226040512        7.8094089006
  O        -4.1687081605        1.4994330595       -5.9692857958
  O         4.9138361604       -5.7505407744       -3.3416345378
  O        -7.0684921435        5.3552503331       -5.0987570135
  O        -5.9443789140        2.8495117664       10.1420161909
  O        -2.0403443009        8.9972765267        8.1695829482
  O         5.5554763428        2.0523095078        6.8752306291
  O         4.2717839318        3.0428573950        8.8702684314
  O         9.3946806202        1.1596434551        9.8131049606
  O        -2.7895044623       -6.8704011148        9.0635539820
  O        -7.7796942390        6.9473170329       -7.1612664499
  O         4.6622181006       -0.5730150978       10.2933271281
  O         6.1048994932        7.9232473824        9.2133518727
  O        -0.1717274651        3.0086690728       10.6925731240
  O         5.9202764902       -7.6568617349        6.5160198509
  O         4.6534058030       -7.3810946912       -5.3082685644
  O        -3.8478116556        3.8644013438       -7.0670619509
  O         2.5218261504        7.4396136009        9.6144553575
  O         8.3152353582        2.5496618205       -7.4236491386
  O         0.6159394226        4.3381465693       -6.4834248472
  O        -8.8264020335       -2.6262657143       -5.4701946033
  O         9.3452600055        1.6109968677        4.9689916536
  O        -4.8367920870       -6.1789995838       -5.8917223870
  O         4.5776719570       -8.4380037758       -2.7062341487
  O        -8.4927584858        7.7819125144       -4.9637536642
  O        -1.9422432155        8.4201544687       10.7791309346
  O        -6.4273289952        7.0111947686        8.7615761007
  O         2.8498948802       -6.8426787027       10.3218867834
  O        -8.2449238001       -2.2914843001       -0.7334763364
  O        -6.1677809680       -5.7844783530        7.2846140646
  O         0.2152887914       -7.4894688775       -5.0013208242
  O        -7.0291807733       -4.5904293496       -5.3710520617
  O         6.3267476699       -0.0901447933        8.3436833384
  O        -9.2438960552       -0.0143431419       -5.1711910865
  O         4.0977880515       -5.1260283612       -7.4261885687
  O        -9.6538059939       -4.9709578620        1.1697263927
  O        -8.0743489959        4.1788710288        1.1002990961
  O         4.3928256304        4.2647204273        6.4616184264
  O        -6.9493844633      -10.5595100199       -0.7680487006
  O        -6.9599786511       -9.6717564186        8.5886467833
  O         4.3522536599        6.8410052392        5.8505410457
  O         6.4655453726       -3.4102354778       -6.9755139932
  O         3.3161634917        2.4922821980       -8.1527723337
  O        -1.2923350737        4.3878188577        8.7530716612
  O         6.8904398541       -6.5116183909        8.7997299235
  O        -5.6753764520       -0.4294063125        7.8357272439
  O         9.7395315070        3.3324937192       -4.3127365246
  O        -5.8691856575       -5.9437796653        4.6173734703
  O        -7.6285448994      -10.4120999181        3.3329373014
  O         7.3157208900        0.1799838061        5.8867613589
  O         9.3611851082       -3.5919329172        3.5733402647
  O        -0.4431053560        6.5606993925       -7.1506251301
  O         7.0356532229       -9.0785982611        8.2718428961
  O        -7.6487368094        4.1955975026       -2.5317866937
  O         8.8547057097       -5.0737653875       -1.2571908316
  O         5.9300557962        5.5880430795       -2.5689405228
  O         8.9202730942       -6.6310929482       -6.1845984600
  O         5.9554305564       -4.4634861614       10.1759774396
  O         6.0233443390      -10.6937645753        6.6232411161
  O         8.8987873677        3.0556074822        0.9555472790
  O         8.1255759096       -4.1199326273        8.4843620119
  O        -4.8663689441       -2.2734362948        9.7158157002
  O         6.1287746804        2.0329786997       -6.1386208503
  O         6.3245098338        8.4560959767        1.7960445638
  O        -6.3518267409        8.6212725838       10.8947041035
  O         1.7859097322        7.0534404305       -6.2725712073
  O        -7.8203896752       -7.4218263947        9.7286005903
  O         7.0851209710       -2.4044426200        3.9857192008
  O         3.9311222167       -7.5928385257        4.7772518249
  O        -7.4416526071        4.6366001604        7.8783020417
  O        -8.6413870711        1.3238749377        0.9303526729
  O         4.6609641432       -8.0046405128        8.8475097416
  O         9.0284789021       -7.2958767133        0.2520090329
  O         8.9809455885       -8.0448296966        5.1755829033
  O         6.6295090813       -7.0695514499       -1.8201220590
  O         6.7196917367       -4.2094379405       -2.2407582858
  O        -0.4771985031       -9.7977239448        6.1959242282
  O         9.6780029929        5.5776344006       -5.7743598017
  O         7.2482091158       -1.3996757566       10.6122575040
  O         0.5061944445      -10.5219787517       10.7773446308
  O        -2.5454761658       -7.4024582149       -5.5481455347
  O        -2.0544343747        8.1369199338       -5.8565907151
  O        -3.8461838340        4.2025318493        9.3120609567
  O        -7.3768712547       -6.8296729448       -3.1634445920
  O         7.4536461603        4.7272401201       -4.6536880337
  O         2.8350448817       -9.4973048542       10.3289938204
  O        -0.7618342638       -9.0518745903       -6.7699524618
  O         6.6385195431        7.9112241129       -4.9394676022
  O         5.6996330096        8.1373655036        4.1293454987
  O        -1.0890376497       -8.4948552346       10.0616689646
  O        -8.5647733374        6.9829719432        7.1839649412
  O        -0.9384221814       -3.5855542116       11.0091230744
  O        -8.6175348047       -9.1936310150        0.8669469050
  O        -5.4926006027        3.2316535296       -4.4273601817
  O         7.9486551748        1.9824709723        7.7927865536
  O        -5.3064122174        5.1221964659       -2.8959006877
  O        -0.3272626697       -5.9259148180        9.8282508008
  O         8.3263688028      -10.0312242270        0.2473960133
  O         6.1553987649        7.2576333154       -0.3837643938
  O        -6.2778256796        9.2751691056       -3.3628355747
  O         8.7327255469        6.8301275857        5.6514140364
  O        -3.9427795154        6.5480715478        4.8967582391
  O        -4.3424665247        0.8834466436        5.9355624079
  O        -5.6841801080        8.1603469507       -5.9472253697
  O         8.8636347759      -10.0556173639       -4.7839756129
  O         7.4572292297        5.9003308640       10.2882821264
  O         2.0395153799       -9.5088365689       -5.4662999898
  O        -7.1550539670        6.9096054600       -2.6460661673
  O        -5.9278969624       -1.4907174659       -7.3513133795
  O         1.7409358644       -8.3018053383        6.2559717592
  O         6.5455441100       -6.8013736345       -7.1224126723
  O        -8.3313386510        1.6274150967       -3.0350673528
  O        -5.0649418763       -9.2936821577        3.8328662935
  O         8.8135745109       -6.2019249015        3.3601092977
  O         3.9304134733        8.0881171461       -5.4436173707
  O        -8.1932607151       -8.7919503578       -5.1087668116
  O         3.0593039539       -0.0974082545       -7.0661059164
  O         6.4490615933        4.3218562324        8.2520768476
  O         5.7150179194       -0.8914133285       -6.7439770964
  O         2.2532934861       -6.7647490766       -6.3867631902
  O        10.3167802100        8.1828322721       -2.3431452224
  O        -8.8303134072        2.8399092772        3.1268082836
  O         4.7168803354       -8.4234260018       11.5961347263
  O        -6.4728943616        2.6767873322       -6.6402932752
  O         5.6951643758        7.3255261108       -7.4006552837
  O        -9.3154874521       -9.5636527956        9.7293763298
  O         4.0421114944       -2.6249303078       11.5038303774
  O        -8.0934144430       -5.2392860704        3.3103492902
  O        -3.7727182356        8.7180582643       -3.9659139196
  O         3.5479608666        5.0610733467       10.4113534085
  O        -6.2292008630       -3.1053071221        7.6360632804
  O        -5.2822061438        8.5655233513        5.9368783651
  O         7.4572363126        4.7695330255       -0.5739798370
  O        -6.4038011428        2.2297204832        6.9096330359
  O         0.1227517130        6.0583002351       -4.4986860822
  O         5.7700035122        3.6234460153       -8.2520012981
  O         5.1015934092        3.4631086593       -4.0108665945
  O         9.4148344323        3.2683087726       -1.6853590174
  O        -2.8532386546        5.1390609519        6.8631461301
  O        -1.4713062604       -9.3187903916       -4.1821936262
  O         0.9430934140       -3.6338011307        9.0394103604
  O         1.4543630456       -4.8916735794       11.2627017138
  O         7.9970110201        8.4339693648       11.0151822014
  O        -1.5791336369        2.4634542359       -6.6237975777
  O        -9.3343832838      -10.0632815106       -7.1118491772
  O        -3.0027538817       -9.3404916812        5.7669229114
  O        -8.1116795139       -0.9392060078       -3.0511721860
  O         8.8819708223        4.4146774685        4.4764131542
  O        -4.4069208226        8.7966502619        9.1951410042
  O        -3.3993639535        1.9463512784       -8.5433087166
  O        -1.5718086134        5.2728054982        4.5824511392
  O         1.1153737147        1.7932856565       -6.6736116302
  O         8.4836942718        8.2093169082        7.8393567796
  O        -2.9849233564       -5.2169970612       11.0533782343
  O         1.0228552738        5.2537367423        9.7580981528
  O        -6.9697166954       -6.1687720723       -7.5482146923
  O        -8.5754216400       -4.1233533412        7.4133578838
  O        -6.1267700627        6.1480467242        6.3387561140
  O        -3.6872251450       -5.7405572752        6.0197011955
  O        -4.2918015117        1.7920843174        8.4199934398
  O        -8.4825956545        2.9588916827       11.0585712233
  O         7.3123121228       -5.9181991753       -4.1694619691
  O         8.4558118521       -8.2395802005       11.1556900868
  O         8.7176371905        3.7099377520        9.6935507294
  O        -6.0717206935       -9.4442380246        1.4531312104
  O        -8.6964139739        2.4048537895        7.9903420196
  O         5.9125816546       -9.5667999214       -0.6443435115
  O         6.6116949945       -8.9660902234       -5.7613573673
  O         8.6858683197       -8.6923113326        2.5029022335
  O         2.2013021423        5.4559137683        5.2116154091
  O        -9.9363395904       -7.3311340332       -3.6236436201
  O        -6.4981285122       -8.0053820497       -0.6956398870
  O         9.5505499667        5.7857282883       -3.2224280170
  O        -9.6034250736        0.1485846869        7.1680064973
  O         2.6290221978       -7.2366328298       -3.8951459647
  O        -9.5289451208       -5.0068926941       -4.6296909391
  O         9.2967986310       -1.1582415836        4.8053400561
  O        -5.2900923295        6.1757092395       -7.7262860294
  O        -2.8414184940        6.5463585185        9.1938092031
  O        10.2590279917        6.0624694559       -0.6021025630
  O         1.2908761138       -9.8768957541        8.2071734689
  O        -8.2366165570       -9.0536537672       -2.4001058584
  O        -8.2656032516        3.5823571349        5.6526650410
  O        -1.3280570039        7.7488549292       -3.2071361180
  O        -4.9184818630       -8.8305376705       -5.5461908137
  O        -4.3362199406        5.5547586348       -5.2700827739
  O         8.0608477107        7.1041481332       -1.7269070881
  O         2.8357534814        5.7356531373        7.8162722778
 Si         2.8008789118       -8.7813355756        4.9852523101
 Si        -6.7475297361       -6.2981252190       10.2392826268
 Si        -4.1553768475        5.4610301120       -6.8474013129
 Si         6.2360779869       -0.1325493271        9.9639847990
 Si        -9.6353874573       -5.8806780654       -0.1708302543
 Si        -9.5099328956       -7.2894711807        6.3455318079
 Si         8.9920789650        6.1134770980        4.2890979283
 Si        -8.2611943317        6.3155329677       -5.7284646524
 Si         3.7484958382       -8.1808144894       10.2831683001
 Si        -3.1957562687        2.3775445256       -7.0376520963
 Si        -9.1108979236      -10.1673783322       -5.5241105747
 Si         5.9155114265        4.8700793852       -4.0291378339
 Si         3.3971949991        5.5729249849        6.2790737198
 Si        -7.2710380553       -0.9063443975       11.1593401656
 Si         8.1578651651       -6.7811626797       -7.5957985997
 Si         6.0740591989       -7.7656212442        8.1196268826
 Si        -7.5414865628        8.6390594915       -2.3328338475
 Si        -5.1955388459       -6.3751390485        6.0838459223
 Si         4.2601279889        3.5714019733       10.3866598473
 Si        -4.8880003048       -2.5957704242       11.3847330942
 Si        -7.1832698162        6.2399522151        7.5279925081
 Si         2.3255277024        8.2818098070       -5.1730804351
 Si        -5.6080621155        4.8595712443       -4.4715005041
 Si         5.0980220658       -3.9139923915       -7.8827143010
 Si         6.8605341188      -10.6232577024        7.9870079711
 Si        -7.3280941343       -6.3932339810        4.1416555275
 Si         4.9813181478        1.9816721765       -4.9707491154
 Si        -1.8128243232        7.3095698913       -7.1957125897
 Si        -8.3723638558       -3.9501102757       -4.6756819042
 Si         5.2353131252        3.4941678122        7.5914627814
 Si         4.1850314914       -7.1543140095       -3.7800479337
 Si         6.7772331761        0.9757454715        7.1802214810
 Si        -8.8793071593        3.1520016206       -2.8879342430
 Si         9.2164861907       -4.3325087299        7.2234810676
 Si        -6.9209564657       -6.7778412436       -1.6049340481
 Si        -2.3273341859       -3.9930112963       -7.5452857430
 Si        -6.7001971406        5.4757483125       -2.1329141872
 Si         9.3353570342        2.5672938068       10.7290569244
 Si        -8.2709062401       -8.8103768570        8.8275125357
 Si        -2.9546717644        8.1748558908        9.1857014610
 Si         0.3036898308       -4.4055901872       10.2439963441
 Si         8.5261389761       -2.6159160829        4.5665054200
 Si        -5.2856041883        1.0724292037        7.2696638080
 Si        -7.1319320124       -9.3305343933        0.1772484303
 Si         2.6537653738       -5.8950889382       -7.7330147610
 Si        -6.0790925839        8.5153538581        9.2731863061
 Si        -8.7235167672       -2.2958144110       -2.2992894982
 Si         5.3549084006        7.3127063228       -5.7454955296
 Si        -8.4460949829       -8.0343113620       -3.6047000690
 Si        -7.6433884805        7.3449108539        3.1135578789
 Si        -5.4455017705        7.0787653068        5.2457374420
 Si         0.2823581656        7.1516014118       -3.2134083679
 Si         6.0137503676       -8.6926485071       -2.0224708165
 Si         7.7957923071        4.8463247285        9.0513930630
 Si         8.8564382565       -6.2428988900       -4.6360889235
 Si         7.3250423326       -5.1286011779        9.5536706531
 Si        -2.1660906343        8.6103256344       -4.2622359264
 Si        -4.6234241797       -9.3277235536        5.3990570360
 Si        -0.7624367141       -9.6078448301       11.1402262413
 Si        -7.0729411658        2.2816878516       -8.1367813922
 Si         1.7985072574       -7.8571681216       -5.1919664529
 Si        -6.2479090170        7.4779388207       -7.3347852893
 Si         9.0751873050        4.8223411957       -4.5025215161
 Si        -7.6536632197        3.2330209248        7.1198559425
 Si        -1.1243721648       -7.1205050378        9.1418550255
 Si         8.9938991493        0.1580093323        5.7005358535
 Si         9.1028109646       -8.7714171412        0.9741483427
 Si        -5.3099657909        9.1399699432       -4.6613892172
 Si         0.1485268530        3.9471494772        9.3930056919
 Si        -2.7603450393        5.0572358972        8.4984093774
 Si         6.6554535157        2.4248230609       -7.6210294201
 Si         5.6356498712       -7.9322575562       -6.5242478127
 Si         2.7280839799        1.5553360308       -6.9115646283
 Si        -1.1952691482       -8.2406305966       -5.2917377794
 Si        -5.6970712369        1.9766427029       -5.4092449118
 Si         6.8758752556        6.1040400595       -1.3435620159
 Si         8.2505197561       -7.7253255981        3.7190333831
 Si         6.7814247487        7.3840836249       10.6708627176
 Si        -6.1116318616       -5.2406435061       -6.5348007547
 Si        -9.4635186145       -1.3094129080       -6.1004096018
 Si         0.5481238875       -8.8718606687        7.1518973908
 Si         8.1181149566       -3.6298681654       -1.3912053959
 Si        -4.3632380014        2.6659230901        9.7315921771
 Si         4.3445048812       -1.0273490848       -7.6185982707
 Si         0.6041703389        5.9737884695       -6.0667949942
 Si        -7.0041400813       -4.4938456782        7.9362037111
 Si        -2.5479170395        6.0985666144        5.5607464674
 Si         4.9059359518        8.2481452593        5.4604945163
 Si        -4.0913823075       -7.5993731375       -6.1722514945
 Si         7.2750833180      -10.0303805313       -4.6634203069
 Si         1.7345226651        8.8841593084        9.6716027685
 Si         6.7554325695        8.6683023526        0.1947893040
 Si         6.9976661402       -1.8811157029       -7.2218275910
 Si        -0.0642625166        2.9211399608       -7.0762358423
 Si        -9.6365232756       -5.0235105842        2.8082520282
 Si        -3.6355836716       -6.5496423325       10.4123489828
 Si        -8.0215030900        0.3499719765       -4.0566746493
 Si        -7.8407358029        5.6752745170        0.4213588046
 Si        -6.4696320442       -9.2057196476        2.9656997953
 Si         6.3218989731        7.1828332941        2.8797250308
 Si        -1.8912840099        8.9645962233        6.4890334609
 Si         8.2638840170        3.3565363442       -0.5015268472
 Si         5.4567859688       -7.1333956184        5.0806227696
 Si         9.0707580915       -9.7501024946       11.0440008398
 Si        -9.9470100922        1.3632544035        8.2012307235
 Si        -9.4183651910        3.0949373252        4.6056217660
 Si        -5.9557378155       -1.7812511530        8.6175669775
 Si         9.1565047764        6.9225526106        7.1696779306
 Si         6.4630584829       -5.7130881409       -2.8027460994
 Si         9.5875422552        6.7851432432       -2.0084620112
 Si        -8.9109562551        2.8210603622        1.5058120887
 Si         2.4907141636        5.8364112044        9.3680084355
 Se        -2.4274589032       -2.0771352043        3.8821811933
 Se        -1.9483638890       -4.5728653527       -5.3464559147
 Se        -5.0158270679       -5.3921056869       -1.2830279955
 Se        -1.9844428649       -6.0786503925        2.5578672913
 Se         1.3819595159       -5.7970248466       -0.5939844385
 Se         1.5923952922       -8.5225878202        3.0624435916
 Se        -6.3587700439       -2.2848558346        2.1717610609
 Se        -4.0288230924       -1.4862320135       -4.0439912010
 Se        -4.8710226310        0.4802960917        0.3470456585
 Se        -1.9371052111       -1.0251467259        8.3590859476
 Se         3.9698477226       -1.4299215046       -0.7021082440
 Se        -2.3758048019       -2.8537927454       -0.5385085641
 Se         1.3076217495       -2.4313487007        1.6447634566
 Se         0.5524049387       -4.5588837460        5.6652160680
 Se         5.1879780547       -5.6110995478        0.9535292079
 Se         5.4671324492       -4.8902749575        5.2333172701
 Se        -2.1379948085        3.4545597648       -1.9939418896
 Se        -3.8614509204        3.8488630140        2.4697716828
 Se        -0.8849135887        1.6190422764        4.9111118463
 Se         0.0529340823       -0.4005507514       -3.0332909990
 Se        -0.7096259299        0.8095958858        0.9521095849
 Se         0.7672617103        4.5670448807        1.9123182618
 Se         1.2845217085        2.8472330298        7.7761032416
 Se         5.1324644653       -0.0735922862       -4.0086614833
 Se         3.5148209963        1.5519195282        2.8995484050
 Se         1.6633155929       -0.6821729833        5.6182035553
 Se         3.6980284187       -1.6669622755        6.6483782516
 Se         7.5858528184       -2.4914478936        0.3716200778
 Se        -2.3763539857        7.5038061751        0.7683354639
 Se         2.7247778218        7.8461437786        0.8112033254
 Se         2.7209570599        3.1657765558       -1.5291194182
 Se         5.2696276419        5.1607369451        2.7167664171
 Se         6.5132802211        1.9995534103       -1.1951190573
 Cd        -6.4682621913       -3.4737985160       -0.0769823511
 Cd        -4.2760498261       -4.0963243495       -3.4575716830
 Cd        -3.1686993621       -4.4244796760        4.3458479620
 Cd        -2.9644228100       -0.8549055244        5.9682802199
 Cd         3.4386744836       -3.9967097518       -0.3831398844
 Cd        -0.6996477376       -4.5324950614        0.9162246493
 Cd        -7.7010078262       -0.5105732858        0.6062188720
 Cd         0.8674888875        1.8521314330        2.6872222611
 Cd        -3.6618828297       -1.7814323718        1.5515062042
 Cd        -0.1026373119        0.6674120183        7.3490589385
 Cd        -1.2064128955       -2.3095326770       -4.2851358551
 Cd         5.1341263060       -1.2207033613        4.2909282714
 Cd        -0.0415577904       -6.5706275362        4.0532693346
 Cd         3.1917186194       -4.3107307407        6.2067237124
 Cd         3.5555769195       -1.0368138204        2.0125273135
 Cd         2.8467809472       -6.6744847536        1.2894881165
 Cd        -1.9575432302        5.6810204257       -1.0731557957
 Cd        -3.0540334545        2.4780796282        0.3174493020
 Cd        -3.3145480546        2.4840441406        4.5183606165
 Cd        -3.8990666416       -0.6701511720       -1.6861832032
 Cd         0.2697826083        2.8361273971       -0.8347914674
 Cd        -0.1730935807       -1.3106598971       -0.5050606393
 Cd        -0.0392942168       -2.6200831016        7.5170496097
 Cd         2.8656332876       -0.0314941052       -2.8699105654
 Cd         6.5021128327       -0.7014247011       -1.0631406992
 Cd         0.2590352162        4.0138990356        5.3301233375
 Cd         5.6147770993       -3.5489522655        2.5613554850
 Cd         0.2589485245       -2.4939704759        4.0239266326
 Cd         2.3444375824        5.7269062711       -0.7424252661
 Cd         0.1708323243        7.9335947078        0.5785754404
 Cd         2.8333473200        5.9922783544        3.0299373345
 Cd        -1.6940858495        5.3629073674        2.2428464924
 Cd         4.5250057036        2.5963083013        0.4998766574
