402
 i =     7800, time =    15600.000, E =     -5882.3775529438
  O         6.6077645605        2.2835857527       10.4041526445
  O        -5.3865352273       -3.0540558384       -7.6582765024
  O         9.0206923222       -5.2879797484        6.3792374384
  O        -7.5069412791        7.9680480352        1.3431036536
  O         1.6433930403        9.0791940811       -4.0906264443
  O         8.2106644738        7.7177259625        2.8041428305
  O        -5.9428532745        7.9733177455        3.5045354853
  O         5.2866709427        6.8218642450       -5.4265186384
  O        -7.9281761405       -4.7897812656       -1.0938997108
  O         8.6696897649       -2.5686948016        5.8009564180
  O         9.3062206131       -1.4391136422       -2.6314238783
  O        -3.2377899908       -1.8151031603       -7.8751101107
  O         8.5205137310       -0.4376713723       -6.4079888801
  O        -4.9505611173       -5.5942292396        9.8155807044
  O        -7.2353908552       -0.4562238544        9.3305796624
  O        -6.3498325822        6.4166275198       -0.5757789396
  O         0.0185439038       -6.5479106361        7.6079995205
  O        -6.2454429677        1.9056176752       -4.7697047642
  O        -1.6063572760        8.4557224086        5.9085845991
  O         8.4292987093       -4.4923828084       10.5702302908
  O        -8.0403319090       -5.8152487960        5.2561812325
  O         6.7655288150       -6.7267220079        3.8805376630
  O        -8.6421963103        0.0043306976       -7.8985290869
  O         3.8307998462       -9.1617156880        5.1202322777
  O        -7.6958618953       -2.5596631864       -3.3381505654
  O        -8.6485439904        7.6083119116        3.6545366081
  O        -3.0516489043        7.6275806368       -7.7521422628
  O        -6.6655593136        1.7578261856       10.6658274602
  O        -4.9192649922       -7.0153742206        5.9798058362
  O        -8.8874046931       -7.5267958113        7.1311186063
  O         0.7248255553        7.4588468863       -2.1667521174
  O         3.5010154213        3.1005089035       -5.7104153518
  O        -7.2408829259       -6.8889119351        3.0805542067
  O        -3.5188679149       -6.8978588772       -7.8606006888
  O         7.0795821453       -8.3058451269       -3.3095398879
  O        -6.9855946110       -3.9173623197        9.1669672442
  O         8.6226539577        6.5576687949        7.7685604704
  O        -3.8499873746        2.7005163376       -5.9564817968
  O         5.0580360844       -4.7799591198       -3.8100168188
  O        -6.8432791548        6.5865547652       -5.1642548052
  O        -5.8005509466        4.0931575514        9.9506933727
  O        -1.8915638034       10.0201788657        7.9790451539
  O         5.6311671729        3.0215717872        6.8788997508
  O         4.3533401520        4.0528552512        8.8289812309
  O         9.4917496309        2.2003774538        9.6497023940
  O        -2.4021725919       -5.9738724912        9.0603698429
  O        -7.5466896471        7.7606678656       -7.3877590732
  O         4.7804500568        0.4820864721       10.0673116003
  O         6.3098607439        9.0063045035        9.1141095439
  O        -0.1758783831        4.1478195870       10.4163985404
  O         6.0014836629       -6.3944346345        6.4425524818
  O         4.7707208782       -6.7297070124       -5.6348652134
  O        -3.3337696915        5.0384610800       -7.3400172587
  O         2.4292992221        8.4315484479        9.6914333487
  O         8.3222844566        3.6509239148       -7.6457445393
  O         0.6857970171        5.2248833703       -6.6689130502
  O        -8.6185330953       -1.6447535769       -5.8713570491
  O         9.2916471536        2.5785687923        4.7297545278
  O        -4.7132289092       -5.2652422340       -6.2041799250
  O         4.7390239474       -7.3195532221       -2.9938367546
  O        -8.3504075931        8.8872294897       -5.2656860107
  O        -1.7695666047        9.5859487576       10.7480065660
  O        -6.2107081854        7.9104534003        8.4021836676
  O         3.4481159700       -5.8082886345       10.2465328659
  O        -7.9165013599       -1.1543977337       -1.0439088260
  O        -6.2531524802       -4.7633849881        6.7054850240
  O         0.2821969438       -6.6678943929       -5.1489382956
  O        -6.9505397625       -3.7148684408       -5.6240058321
  O         6.6174242836        0.8557397208        8.2345351766
  O        -8.8767164619        1.0153422884       -5.4050692224
  O         4.3018856232       -4.0607849272       -7.4002772972
  O        -9.3791586368       -4.0518112576        1.1276759491
  O        -8.1888435506        5.4101335080        1.0904592345
  O         4.5660915824        5.2948539253        6.2600214973
  O        -6.6709559039       -9.6079689100       -1.0600532336
  O        -6.8901726593       -8.9262772665        8.3011599740
  O         4.1151703772        7.8319995148        5.7344088453
  O         6.5888732419       -2.2807525189       -7.1229638670
  O         3.4048684320        3.6124913882       -8.2817175897
  O        -1.0521738602        5.5686531892        8.3227781206
  O         6.8232093717       -5.6023484332        8.8089122893
  O        -5.4058209373        0.4742066819        7.5229403872
  O         9.9035099569        4.4501704837       -4.2904462358
  O        -5.6625262202       -5.1905182332        4.2036422424
  O        -7.3624358353       -9.3850958421        3.1559867868
  O         7.3543072361        1.1967087017        5.7831771235
  O         9.4424273985       -2.5839105602        3.1607928654
  O        -0.3487289918        7.5217151374       -7.4831401588
  O         7.3211969219       -8.1366277072        8.0203879493
  O        -7.4821094621        5.1934461782       -2.6121027878
  O         9.0836885982       -3.7508523804       -1.2596715064
  O         6.1573839342        6.6125393887       -2.8185841779
  O         9.1852304864       -5.5642644685       -6.4708502492
  O         6.0112097059       -3.2503037121        9.9059819843
  O         5.9676762256      -10.0738531919        6.6031675668
  O         9.0861950277        4.1859422446        0.8286291328
  O         8.1728493011       -3.4472286933        8.1145005694
  O        -4.9106928691       -1.4669928898        9.4504140072
  O         6.0529852881        2.9936299338       -6.4280587983
  O         6.4329075874        9.4842901087        1.5713537034
  O        -6.1191120868        9.4822530762       10.6874518836
  O         1.9202516844        7.9399918702       -6.5541976747
  O        -7.6523606796       -6.4519016711        9.2895396117
  O         7.1890349742       -1.4234744805        3.7377673339
  O         4.1314475538       -6.5433925139        4.5869728336
  O        -7.0725608583        5.4588871149        7.5292373091
  O        -8.1074823631        2.7126428962        0.2663342724
  O         4.9792774660       -7.3726784365        8.6140101901
  O         9.1376987220       -6.2357651636       -0.3509674364
  O         9.2576348288       -7.2300250697        4.6658304939
  O         6.7026878016       -5.9549248623       -2.0198732134
  O         6.9813207455       -3.1785624082       -2.6484132750
  O        -0.2658195740       -8.6727504900        5.9861677769
  O         9.9026337819        6.5256625879       -5.9571719161
  O         7.2528129595       -0.3728093773       10.6133783774
  O         0.7844020672       -9.3302172625       10.9281368575
  O        -2.4503224350       -6.2433057538       -5.5072372921
  O        -1.8259624974        9.0181848969       -5.9482280453
  O        -3.4613490641        5.0673816633        9.1309083549
  O        -6.7958993516       -6.0404438496       -3.4377758456
  O         7.6523045399        5.8370197790       -4.8514014069
  O         3.0681812070       -8.4433708816       10.0970385401
  O        -0.9789482496       -8.0700024413       -6.8345988930
  O         6.6708026418        9.0534452651       -5.0255204914
  O         5.9677628639        8.9036555457        4.0489083019
  O        -0.5064670855       -7.2199351211       10.1353425694
  O        -8.5445833546        7.8550645892        7.2871107800
  O        -0.6775496462       -2.7571640728       10.8490651677
  O        -8.5180240107       -8.0896785858        0.2948630689
  O        -5.4254469846        4.3909136472       -4.6198316418
  O         8.1222850634        2.9295212194        7.5245580181
  O        -5.1146376712        6.3388288440       -3.0392740054
  O        -0.0547380725       -4.7744765134        9.4148746068
  O         8.3807674164       -8.9352788556       -0.0039084282
  O         6.3217898963        8.3514941609       -0.6454130908
  O        -6.2404503978       10.1037933567       -3.8335044015
  O         8.8381836345        7.6872444387        5.3710537319
  O        -3.7265174364        7.5679115118        4.6992988828
  O        -4.1608782808        1.8741361213        5.6746848202
  O        -5.4182495785        8.9649511575       -6.1096905073
  O         9.0557092512       -8.8780774413       -4.9271609130
  O         7.5811888246        6.9785015833       10.2688683007
  O         2.0803824751       -8.5362338021       -5.8313963066
  O        -6.9456600920        7.9718391775       -2.6691225705
  O        -5.9005668152       -0.5730097406       -7.7266215326
  O         2.1436604555       -7.5111618724        6.2261456839
  O         6.6599442693       -5.6189756908       -7.3105525510
  O        -8.2615662651        2.6000357923       -3.0927321805
  O        -4.9918352276       -8.4189427138        3.6217191075
  O         8.8239609652       -5.1473016517        3.1223580749
  O         4.0491082612        9.1622113633       -5.7055026375
  O        -7.7798129997       -7.8204143934       -5.2936017563
  O         3.2927131830        0.9678069640       -7.3053854783
  O         6.5136741590        5.3873787325        8.1822596847
  O         5.8158724202        0.1738841654       -6.8320402948
  O         2.2324347808       -6.0029597245       -6.8073857528
  O        10.4533181333        9.2593275608       -2.3736916702
  O        -8.7975344841        3.5849036520        2.8174118879
  O         5.1801662853       -7.7319748588       11.3135932392
  O        -6.2728565960        3.5543436487       -6.8859994535
  O         6.0213622715        8.3871220434       -7.5243676918
  O        -9.2105666709       -8.6618105830        9.4939848573
  O         4.1708838886       -1.5970792541       11.3614454579
  O        -8.0137358212       -4.2508458947        3.3238263729
  O        -3.7293739643        9.4777328890       -4.1359692724
  O         3.8281216129        6.2304722652       10.3463166915
  O        -6.3503311153       -2.0686940766        7.2780238494
  O        -5.1939820428        9.4868113356        5.9477808137
  O         7.8950221087        6.1308041560       -0.6825997806
  O        -6.2310471479        3.0449789657        6.6132561374
  O         0.1183644129        6.9140933868       -4.8518939591
  O         5.8055405802        4.7818232962       -8.3607236846
  O         5.4406427791        4.4806880352       -4.3073497585
  O         9.4638003017        4.3132639568       -1.7725408976
  O        -2.9819678980        6.2761732838        6.7791991833
  O        -1.7355383969       -8.3054014276       -4.4116160598
  O         1.4466670899       -2.6615750396        8.9400199050
  O         1.7232341098       -3.9451086588       11.1731504559
  O         8.1800793822        9.5259225689       10.7851031192
  O        -1.3953174044        3.3750338547       -6.7148791490
  O        -9.0839726892       -8.8504833561       -7.2965527604
  O        -2.9308541520       -8.5908114663        5.5409773418
  O        -7.7072038579        0.0838624651       -3.3505412732
  O         9.0713111911        5.3509597281        4.1212363243
  O        -4.3347868593        9.5372900019        8.8447236551
  O        -3.4691611396        2.8543488733       -8.6500821131
  O        -1.3838741273        6.0391185085        4.6494467257
  O         1.1539292073        2.7375998610       -7.1168150563
  O         8.5374003871        9.1112120755        7.5918052389
  O        -2.8507410447       -4.3681266159       11.0227678319
  O         1.2419686208        6.2670197136        9.5334438268
  O        -6.9566294739       -5.1811788554       -7.8828173240
  O        -8.5868195546       -3.5649443418        7.0051312144
  O        -6.3065913672        7.2132332563        5.8963974482
  O        -3.6263462325       -4.5184986562        5.8514158404
  O        -4.2016738678        2.6987651905        8.2389767488
  O        -8.4279097138        3.9691107127       11.0129858760
  O         7.5123085668       -4.9932158878       -4.4269255515
  O         8.5419150209       -7.1704385707       10.8277390902
  O         8.8182081113        4.8243627425        9.5488396765
  O        -5.9751845931       -8.3579656686        1.1946881808
  O        -8.5790223843        3.4042370864        7.8247513398
  O         5.9922114575       -8.3624519728       -0.8298905742
  O         7.0056591501       -7.9412260443       -6.0686049841
  O         8.6604593976       -7.4813997901        2.0031569215
  O         2.2225704081        6.1757515388        5.0548186675
  O        -9.5051445524       -6.1949104781       -3.8818612543
  O        -6.3611092000       -6.9293660877       -0.8330185855
  O         9.9001935224        6.7886442076       -3.4646652303
  O        -9.6077949623        1.1127518018        6.9313816892
  O         2.7300651127       -6.5027075178       -4.2564674612
  O        -9.5692474292       -3.7226657964       -4.7056027111
  O         9.3858910691       -0.1305997829        4.5985993466
  O        -5.3058238679        6.9953907108       -7.9685815047
  O        -2.7092528313        7.6290596097        9.0762543035
  O        10.4968978386        7.2241670820       -0.8230293201
  O         1.1967207446       -8.9532543563        8.3001533279
  O        -8.0472326008       -8.1509654377       -2.6888902693
  O        -8.1993212744        4.2837109875        5.3765685383
  O        -1.2061098361        8.6563684104       -3.4556614977
  O        -4.6393698617       -7.8982458645       -5.5588872057
  O        -4.1776526047        6.4739935804       -5.5455397004
  O         8.1912175768        8.1692607509       -2.1952271987
  O         2.8408115234        6.6795654298        7.7381763755
 Si         2.9940928840       -7.7515427168        4.8427994159
 Si        -6.6372991334       -5.3656967869        9.9050658564
 Si        -3.9891514628        6.4545760485       -7.1700540539
 Si         6.3850732391        0.7412729879        9.8363113302
 Si        -9.4631081580       -4.7580508829       -0.3827357292
 Si        -9.3537744106       -6.4961194120        5.8666457451
 Si         9.2453571376        6.9875286807        3.9909038888
 Si        -8.0875937471        7.4131432502       -5.9133642865
 Si         4.2129450144       -7.3150092866       10.0790664344
 Si        -3.0505111026        3.4954258589       -7.1530994782
 Si        -8.8708527043       -9.0092819297       -5.7295576832
 Si         6.1248688022        5.9365037666       -4.3541599566
 Si         3.3507727221        6.4668377582        6.2000024122
 Si        -7.1379358627        0.1849751709       10.8143130397
 Si         8.2420525532       -5.7549362988       -7.7824226738
 Si         6.3116327719       -6.8643863917        7.9653447275
 Si        -7.3505548065        9.5742390278       -2.4955556920
 Si        -4.9548579118       -5.3724681149        5.7782658782
 Si         4.3492187195        4.6202210982       10.3045881559
 Si        -4.8059883472       -1.7195739499       11.0701978959
 Si        -7.0895631088        7.0609504316        7.2785136802
 Si         2.3941703080        9.2269567916       -5.5583033239
 Si        -5.3928426233        6.0581732494       -4.5820288122
 Si         5.2742278671       -2.8094197432       -8.0000624319
 Si         7.0431744816       -9.7626007610        7.8200268222
 Si        -7.1985506528       -5.4901844568        3.9213356591
 Si         5.0125318054        3.1187642982       -5.1182283815
 Si        -1.7115243468        8.3195967190       -7.3644695540
 Si        -8.1573203949       -2.9192064294       -4.8894426156
 Si         5.2764718196        4.5516619867        7.4975626588
 Si         4.3253691098       -6.2730373471       -4.0610487071
 Si         6.8341706041        2.0178446110        7.1253659916
 Si        -8.7080091107        4.1475251537       -2.8286852779
 Si         9.1841120477       -3.6788622948        6.8421960783
 Si        -6.6983878051       -5.6779193423       -1.8671922185
 Si        -2.0929002626       -3.0523607631       -7.7863318912
 Si        -6.5419876820        6.5054203215       -2.1682106639
 Si         9.4035126477        3.6689004804       10.5460990039
 Si        -8.1153743687       -7.8485849351        8.5532432423
 Si        -2.7779926339        9.2170502077        8.9809207028
 Si         0.6261632951       -3.4692554212       10.0266400967
 Si         8.6601516094       -1.6630574292        4.3609052337
 Si        -5.0587336668        2.0318836125        7.0597587440
 Si        -6.9148304924       -8.2609072020       -0.1454433847
 Si         2.9258850357       -4.9482105351       -7.7982334006
 Si        -5.9105265717        9.3464406902        9.0061992308
 Si        -8.3473781555       -1.2546465319       -2.5534904899
 Si         5.5024241764        8.3705193689       -5.9648954028
 Si        -8.0889313469       -7.1003701615       -3.8669881304
 Si        -7.4209294537        8.3801898572        2.9472564092
 Si        -5.2424127547        8.0557007114        4.9834231915
 Si         0.3965385109        8.0355620124       -3.6423425589
 Si         6.1492057254       -7.4965108669       -2.2183168060
 Si         7.8330058038        5.9612110794        9.0253061973
 Si         9.1142717808       -5.1670330107       -4.8600187910
 Si         7.3212960984       -4.1213104786        9.3354084859
 Si        -2.1462099541        9.5197427507       -4.4209867325
 Si        -4.5858323215       -8.4484784003        5.3248540824
 Si        -0.5993876277       -8.4609277606       11.0664081699
 Si        -6.9083150031        3.3948168671       -8.3692859918
 Si         1.8691689353       -6.9483284854       -5.5456853086
 Si        -6.0610526397        8.4001948482       -7.4514360323
 Si         9.2635477185        5.8730554438       -4.6210873820
 Si        -7.4989411314        4.0465127929        6.8648464964
 Si        -0.7439914803       -6.1165630791        9.0254657759
 Si         8.9800310473        1.1402337232        5.4681806642
 Si         9.2884982775       -7.6890398801        0.4974350966
 Si        -5.0738280261       10.0801378147       -4.9299783034
 Si         0.3414990345        4.9574834731        9.0864711384
 Si        -2.5674778926        6.1412193443        8.3413201754
 Si         6.7023030034        3.4444446469       -7.8293209793
 Si         5.9035488655       -6.9650996078       -6.7472643600
 Si         2.8444900170        2.5698102208       -7.1143398054
 Si        -1.1770994244       -7.2361328241       -5.4150553262
 Si        -5.3989583643        3.0877454927       -5.5346665982
 Si         7.0852558151        7.2251315012       -1.5769866562
 Si         8.3428157480       -6.6953347827        3.4305555107
 Si         6.9655353734        8.4935981801       10.5625024186
 Si        -6.0028525948       -4.3182435595       -6.8704089067
 Si        -9.1975213017       -0.2150375053       -6.3748880169
 Si         0.7874896049       -7.9597563153        7.0467540579
 Si         8.2228867531       -2.4639003786       -1.7916697651
 Si        -4.2426889591        3.7098538363        9.5131292462
 Si         4.4830426928        0.0205916616       -7.8226300750
 Si         0.6533894952        6.8521457299       -6.3575013093
 Si        -7.0457076894       -3.5592922050        7.4990312547
 Si        -2.4059832602        7.0625294320        5.4587686058
 Si         5.0312699749        9.0441212614        5.3160930368
 Si        -3.8554400262       -6.6446667785       -6.2947983566
 Si         7.4280279906       -8.9004250182       -4.7979822638
 Si         1.9379531066        9.9229267896        9.6633461009
 Si         6.8459106285        9.7871952419       -0.0342390316
 Si         7.1543258910       -0.8000458340       -7.1437137984
 Si         0.0026556120        3.8443640454       -7.4076003754
 Si        -9.4391056868       -4.0311093334        2.6935224733
 Si        -3.4435743345       -5.7081620588       10.3654307979
 Si        -7.7570268925        1.4843629634       -4.2164098457
 Si        -7.7604995392        6.7498827885        0.2569218573
 Si        -6.3617271146       -8.2489238459        2.7568255484
 Si         6.5763011808        8.1254406699        2.6507046278
 Si        -1.7311289521        9.9943137884        6.2926139335
 Si         8.3997467929        4.5827815368       -0.5596451891
 Si         5.6817195980       -6.0374647460        4.8796298780
 Si         9.2938200428       -8.6382210247       10.8556841500
 Si        -9.7847693828        2.3492516436        7.9985160552
 Si        -9.3544262198        3.9721314556        4.2722205930
 Si        -5.9371927385       -0.8543011347        8.3367000978
 Si         9.2426964580        7.8040288696        6.9712022945
 Si         6.5495679101       -4.7007505938       -3.1424594074
 Si         9.7769555102        7.8634189541       -2.1407753954
 Si        -8.7214544466        3.8563997215        1.1637327901
 Si         2.7113820443        6.8949850806        9.3360343708
 Se        -2.1757334987       -1.0247552594        3.3575494614
 Se        -1.5240809059       -3.4292259126       -5.5798527047
 Se        -4.8241693600       -4.3452140612       -1.5595127299
 Se        -2.0732185533       -5.0788350332        2.3872901458
 Se         1.3744915917       -4.9230992567       -0.8771040367
 Se         1.5405566251       -7.5574615199        2.9018983039
 Se        -6.2661055898       -1.3997000202        2.0959350747
 Se        -4.1649800065       -0.5642811217       -4.5475189323
 Se        -4.9037431696        1.4128630733       -0.0650725752
 Se        -1.9276665327       -0.2021820489        8.0330101673
 Se         3.6556839864       -0.1194677556       -0.9131290413
 Se        -2.2398660333       -1.8247274225       -0.6724187691
 Se         1.2685623046       -1.4357554232        1.3167976356
 Se         0.5648141040       -3.7768674266        5.7255534747
 Se         4.8737133691       -4.2020218019        0.6101243431
 Se         5.6855281357       -3.7663172915        4.7016568360
 Se        -2.2311921707        4.9769796593       -2.0583090435
 Se        -3.9910790051        5.0336257550        2.3988766114
 Se        -0.8573827488        2.5208020071        4.8134182242
 Se         0.0680481907        0.8144372967       -3.2084903734
 Se        -0.9757457439        2.0763933643        0.6906836295
 Se         0.9137105846        5.3453243751        1.7233515729
 Se         1.3595043666        3.6869297439        7.5547961710
 Se         5.1642360969        1.2559612600       -3.9013972442
 Se         3.4095587748        2.2572643671        2.5153857382
 Se         1.6976868876        0.0543175759        5.6848559180
 Se         3.7832662348       -0.8360641701        6.6120743285
 Se         7.8195770213       -1.0670800754        0.0074303688
 Se        -2.0081299795        8.7110397979        0.7512429353
 Se         2.9504681689        8.8028833651        0.5887448911
 Se         2.7034487400        4.3032054748       -1.6446994698
 Se         5.4002089142        6.1629211854        2.2357469460
 Se         6.4419189701        3.3734845826       -1.0163550089
 Cd        -6.1228915292       -2.5566621493       -0.3597866463
 Cd        -3.9571303943       -3.0855892705       -3.7414149740
 Cd        -2.9235805556       -3.3846225177        4.2307632959
 Cd        -2.8345309095        0.1314849104        5.4528279182
 Cd         3.0942749421       -2.7538157041       -0.4893440702
 Cd        -0.6364422579       -3.9398217337        0.4352030503
 Cd        -7.3890067898        0.6161749788        0.4856348395
 Cd         0.9302346188        2.4847911494        2.4363488261
 Cd        -3.8598188921       -0.7726425084        1.1856063524
 Cd        -0.5123939454        1.8841682281        7.4136847012
 Cd        -1.3470557005       -1.0123956719       -4.6360837054
 Cd         5.2013857118       -0.6480029747        4.3485333832
 Cd        -0.0934441825       -5.7670576863        3.9178077182
 Cd         3.2857562642       -3.4305867024        5.7173657466
 Cd         3.6300552421       -0.4260613235        1.9199725497
 Cd         2.8804937109       -5.7827186743        1.1386627039
 Cd        -1.4838127171        7.3152788033       -1.2868074266
 Cd        -3.4305403897        3.9800793747        0.0817578982
 Cd        -3.2823960571        3.3416689218        4.0910876052
 Cd        -4.1314899379        0.3513065883       -2.2183649208
 Cd         0.0754142262        3.7411902583       -1.2033922377
 Cd        -0.1817910236       -0.1667306083       -0.4851948234
 Cd         0.3844719109       -1.3211722358        7.8022590880
 Cd         2.6646002113        0.8755485867       -3.3025339664
 Cd         6.3256073595        0.6898284596       -1.1060646217
 Cd         0.3903729448        4.8394834213        5.2033246671
 Cd         6.1530922153       -2.3136929024        1.7422243611
 Cd         0.6320233162       -1.6892831249        3.7920894336
 Cd         2.4552956760        6.6200880817       -0.7363952785
 Cd         0.5104236613        9.2279421546        1.1214409476
 Cd         3.0086130522        6.9109865235        2.6718094532
 Cd        -1.4902558448        6.3161351754        2.2609370405
 Cd         4.1764831504        3.4738326809        0.4081300038
