LAMMPS data file -- atom_style full -- generated by chemfiles
2237 atoms
1474 bonds
737 angles
0 dihedrals
0 impropers
4 atom types
1 bond types
1 angle types
0 dihedral types
0 improper types
0 32 xlo xhi
0 32 ylo yhi
0 32 zlo zhi

# Pair Coeffs
# 1 Cl
# 2 Hw
# 3 Li
# 4 Ow

# Bond Coeffs
# 1 Hw-Ow

# Angle Coeffs
# 1 Hw-Ow-Hw

Masses

1 35.45 # Cl
2 1.008 # Hw
3 6.94 # Li
4 15.999 # Ow

Atoms # full

1 1 2 0 6.507 9.117 13.136 # Hw
2 1 2 0 5.807 7.643 13.072 # Hw
3 1 4 0 6.548 8.177 13.477 # Ow
4 2 2 0 3.142 24.564 0.328 # Hw
5 2 2 0 3.354 24.333 1.931 # Hw
6 2 4 0 3.803 24.318 1.038 # Ow
7 3 2 0 15.732 27.994 27.592 # Hw
8 3 2 0 14.798 29.323 27.429 # Hw
9 3 4 0 14.796 28.344 27.627 # Ow
10 4 2 0 22.555 0.488 25.474 # Hw
11 4 2 0 21.732 -0 26.797 # Hw
12 4 4 0 22.51 0.537 26.472 # Ow
13 5 2 0 5.955 15.339 15.565 # Hw
14 5 2 0 5.137 15.637 16.947 # Hw
15 5 4 0 5.822 15.051 16.514 # Ow
16 6 2 0 6.717 14.181 19.081 # Hw
17 6 2 0 7.324 15.554 19.725 # Hw
18 6 4 0 7.515 14.594 19.522 # Ow
19 7 2 0 14.038 18.579 15.995 # Hw
20 7 2 0 13.81 16.969 15.841 # Hw
21 7 4 0 14.468 17.68 16.085 # Ow
22 8 2 0 7.471 4.947 6.856 # Hw
23 8 2 0 6.255 5.778 6.152 # Hw
24 8 4 0 6.498 5.171 6.907 # Ow
25 9 2 0 21.542 2.259 29.945 # Hw
26 9 2 0 21.216 0.758 29.39 # Hw
27 9 4 0 20.908 1.487 30 # Ow
28 10 2 0 13.294 2.633 13.986 # Hw
29 10 2 0 13.687 3.284 15.431 # Hw
30 10 4 0 12.952 3.158 14.766 # Ow
31 11 2 0 19.562 21.053 21.426 # Hw
32 11 2 0 18.046 20.449 21.392 # Hw
33 11 4 0 18.59 21.285 21.447 # Ow
34 12 2 0 0.005 29.993 26.901 # Hw
35 12 2 0 0.254 29.993 25.288 # Hw
36 12 4 0 0.097 29.417 26.089 # Ow
37 13 2 0 11.87 8.545 9.861 # Hw
38 13 2 0 11.902 9.704 8.711 # Hw
39 13 4 0 12.308 8.842 9.012 # Ow
40 14 2 0 26.741 22.186 8.101 # Hw
41 14 2 0 26.751 22.536 9.697 # Hw
42 14 4 0 26.96 22.884 8.783 # Ow
43 15 2 0 18.715 17.447 29.832 # Hw
44 15 2 0 19.665 16.333 29.109 # Hw
45 15 4 0 19.329 16.673 29.986 # Ow
46 16 2 0 5.315 17.709 3.731 # Hw
47 16 2 0 6.946 17.653 3.79 # Hw
48 16 4 0 6.157 18.223 3.565 # Ow
49 17 2 0 -0.002 18.331 -0.001 # Hw
50 17 2 0 -0.004 18.526 1.621 # Hw
51 17 4 0 0.383 18.002 0.862 # Ow
52 18 2 0 9.635 17.952 3.297 # Hw
53 18 2 0 8.886 17.842 1.85 # Hw
54 18 4 0 9.253 18.473 2.534 # Ow
55 19 2 0 21.939 21.581 10.684 # Hw
56 19 2 0 22.589 20.726 11.915 # Hw
57 19 4 0 21.802 20.808 11.305 # Ow
58 20 2 0 17.151 7.387 12.986 # Hw
59 20 2 0 16.571 7.389 14.513 # Hw
60 20 4 0 17.185 6.927 13.874 # Ow
61 21 2 0 17.383 15.296 27.969 # Hw
62 21 2 0 17.441 16.652 27.06 # Hw
63 21 4 0 17.126 16.262 27.925 # Ow
64 22 2 0 10.713 28.373 18.883 # Hw
65 22 2 0 9.713 28.297 20.171 # Hw
66 22 4 0 9.902 28.772 19.312 # Ow
67 23 2 0 4.159 6.432 17.576 # Hw
68 23 2 0 3.782 4.851 17.418 # Hw
69 23 4 0 4.519 5.524 17.363 # Ow
70 24 2 0 2.2 5.802 19.579 # Hw
71 24 2 0 0.601 5.901 19.262 # Hw
72 24 4 0 1.416 6.421 19.515 # Ow
73 25 2 0 6.906 29.994 15.948 # Hw
74 25 2 0 5.673 28.924 15.978 # Hw
75 25 4 0 6.631 29.058 15.727 # Ow
76 26 2 0 7.222 29.937 18.771 # Hw
77 26 2 0 7.082 28.337 18.473 # Hw
78 26 4 0 6.581 29.198 18.56 # Ow
79 27 2 0 18.834 10.478 1.408 # Hw
80 27 2 0 20.192 11.372 1.568 # Hw
81 27 4 0 19.243 11.27 1.864 # Ow
82 28 2 0 5.102 -0.021 15.225 # Hw
83 28 2 0 6.467 0.293 16.065 # Hw
84 28 4 0 5.509 0.017 16.138 # Ow
85 29 2 0 0 21.921 3.111 # Hw
86 29 2 0 0.942 20.588 3.175 # Hw
87 29 4 0 0.001 20.921 3.117 # Ow
88 30 2 0 18.87 17.511 8.916 # Hw
89 30 2 0 19.055 16.436 7.701 # Hw
90 30 4 0 18.436 17.105 8.111 # Ow
91 31 2 0 14.81 19.334 24.181 # Hw
92 31 2 0 16.227 19.849 23.553 # Hw
93 31 4 0 15.342 20.139 23.918 # Ow
94 32 2 0 7.183 0.009 5.183 # Hw
95 32 2 0 8.738 -0.024 5.679 # Hw
96 32 4 0 8.137 0.039 4.884 # Ow
97 33 2 0 7.446 13.703 3.053 # Hw
98 33 2 0 6.904 14.912 4.008 # Hw
99 33 4 0 7.56 14.161 3.935 # Ow
100 34 2 0 8.19 15.202 6.421 # Hw
101 34 2 0 7.469 15.195 7.886 # Hw
102 34 4 0 8.316 15.391 7.395 # Ow
103 35 2 0 20.729 28.076 -0 # Hw
104 35 2 0 19.831 28.562 1.274 # Hw
105 35 4 0 20.525 28.841 0.611 # Ow
106 36 2 0 4.091 1.156 21.813 # Hw
107 36 2 0 2.527 0.696 21.711 # Hw
108 36 4 0 3.461 0.483 21.425 # Ow
109 37 2 0 16.105 27.42 22.598 # Hw
110 37 2 0 17.08 28.674 22.218 # Hw
111 37 4 0 16.775 27.764 21.94 # Ow
112 38 2 0 0.495 12.544 3.869 # Hw
113 38 2 0 1.729 13.604 4.015 # Hw
114 38 4 0 1.44 12.74 3.605 # Ow
115 39 2 0 20.5 23.523 1.551 # Hw
116 39 2 0 19.683 24.44 0.475 # Hw
117 39 4 0 19.641 23.623 1.049 # Ow
118 40 2 0 -0.002 27.468 14.021 # Hw
119 40 2 0 -0.008 25.955 13.407 # Hw
120 40 4 0 0.375 26.873 13.31 # Ow
121 41 2 0 21.936 26.226 16.792 # Hw
122 41 2 0 22.516 27.29 17.886 # Hw
123 41 4 0 22.763 26.656 17.155 # Ow
124 42 2 0 16.6 8.904 5.637 # Hw
125 42 2 0 17.388 7.478 5.759 # Hw
126 42 4 0 16.562 7.979 6.017 # Ow
127 43 2 0 17.597 3.667 22.025 # Hw
128 43 2 0 15.991 3.387 22.124 # Hw
129 43 4 0 16.689 4.075 21.929 # Ow
130 44 2 0 4.261 30 7.878 # Hw
131 44 2 0 3.35 30.004 9.233 # Hw
132 44 4 0 3.739 29.43 8.513 # Ow
133 45 2 0 14.111 13.173 22.381 # Hw
134 45 2 0 14.274 14.761 22.728 # Hw
135 45 4 0 13.621 14.011 22.623 # Ow
136 46 2 0 3.16 27.649 17.848 # Hw
137 46 2 0 3.719 28.98 18.61 # Hw
138 46 4 0 3.976 28.187 18.059 # Ow
139 47 2 0 22.337 8.726 5.809 # Hw
140 47 2 0 22.469 7.625 7.008 # Hw
141 47 4 0 22.811 7.898 6.11 # Ow
142 48 2 0 18.423 -0.004 10.215 # Hw
143 48 2 0 18.468 0.498 8.661 # Hw
144 48 4 0 17.869 0.22 9.412 # Ow
145 49 2 0 16.834 1.48 20.171 # Hw
146 49 2 0 18.216 2.244 19.756 # Hw
147 49 4 0 17.822 1.375 20.053 # Ow
148 50 2 0 25.764 17.089 4.803 # Hw
149 50 2 0 26.328 18.281 3.841 # Hw
150 50 4 0 26.587 17.545 4.465 # Ow
151 51 2 0 3.992 9.194 2.528 # Hw
152 51 2 0 5.227 10.247 2.706 # Hw
153 51 4 0 4.235 10.159 2.627 # Ow
154 52 2 0 23.577 17.387 15.4 # Hw
155 52 2 0 22.722 16.876 16.693 # Hw
156 52 4 0 22.793 16.843 15.697 # Ow
157 53 2 0 12.372 12.269 0.242 # Hw
158 53 2 0 11.795 13.692 0.8 # Hw
159 53 4 0 11.881 13.106 -0.005 # Ow
160 54 2 0 24.006 20.425 17.276 # Hw
161 54 2 0 24.4 18.867 17.566 # Hw
162 54 4 0 24.397 19.594 16.88 # Ow
163 55 2 0 29.415 11.924 13.289 # Hw
164 55 2 0 28.834 12.114 14.803 # Hw
165 55 4 0 28.589 11.927 13.852 # Ow
166 56 2 0 25.944 25.556 13.473 # Hw
167 56 2 0 25.566 24.039 13.001 # Hw
168 56 4 0 26.309 24.644 13.286 # Ow
169 57 2 0 29.169 9.831 25.562 # Hw
170 57 2 0 29.757 11.333 25.816 # Hw
171 57 4 0 30 10.371 25.695 # Ow
172 58 2 0 29.375 3.64 4.38 # Hw
173 58 2 0 28.898 2.08 4.461 # Hw
174 58 4 0 29.646 2.692 4.208 # Ow
175 59 2 0 27.437 9.438 12.641 # Hw
176 59 2 0 27.156 8.732 11.196 # Hw
177 59 4 0 27.541 9.534 11.651 # Ow
178 60 2 0 3.33 18.851 27.242 # Hw
179 60 2 0 4.441 19.525 28.231 # Hw
180 60 4 0 4.279 19.16 27.315 # Ow
181 61 2 0 0.068 20.627 14.889 # Hw
182 61 2 0 -0.006 19.334 13.895 # Hw
183 61 4 0 -0 20.332 13.936 # Ow
184 62 2 0 1.55 15.127 25.222 # Hw
185 62 2 0 2.296 15.894 26.456 # Hw
186 62 4 0 1.753 15.095 26.201 # Ow
187 63 2 0 18.882 24.378 10.13 # Hw
188 63 2 0 17.426 24.304 9.395 # Hw
189 63 4 0 18.047 23.839 10.025 # Ow
190 64 2 0 7.49 29.737 5.205 # Hw
191 64 2 0 7.676 28.288 4.474 # Hw
192 64 4 0 8.118 29.16 4.683 # Ow
193 65 2 0 24.25 25.352 24.165 # Hw
194 65 2 0 24.264 23.873 23.474 # Hw
195 65 4 0 23.906 24.803 23.403 # Ow
196 66 2 0 12.219 20.428 23.899 # Hw
197 66 2 0 13.02 21.623 23.126 # Hw
198 66 4 0 12.817 21.221 24.018 # Ow
199 67 2 0 25.585 15.048 28.239 # Hw
200 67 2 0 25.197 14.611 29.764 # Hw
201 67 4 0 25.095 15.32 29.067 # Ow
202 68 2 0 -0.03 11.812 9.537 # Hw
203 68 2 0 0.908 10.509 9.833 # Hw
204 68 4 0 0.911 11.489 9.634 # Ow
205 69 2 0 23.862 5.431 5.504 # Hw
206 69 2 0 24.953 6.205 6.44 # Hw
207 69 4 0 24.833 5.639 5.626 # Ow
208 70 2 0 6.63 2.343 8.318 # Hw
209 70 2 0 6.253 3.669 9.193 # Hw
210 70 4 0 5.894 2.827 8.792 # Ow
211 71 2 0 23.187 18.848 29.732 # Hw
212 71 2 0 21.694 19.413 29.389 # Hw
213 71 4 0 22.222 18.819 29.994 # Ow
214 72 2 0 15.449 22.4 9.565 # Hw
215 72 2 0 15.482 23.19 10.994 # Hw
216 72 4 0 15.007 23.106 10.119 # Ow
217 73 2 0 15.958 4.735 7.777 # Hw
218 73 2 0 15.339 3.305 7.289 # Hw
219 73 4 0 15.598 3.854 8.083 # Ow
220 74 2 0 2.393 28.939 21.681 # Hw
221 74 2 0 3.522 29.996 21.157 # Hw
222 74 4 0 2.63 29.907 21.6 # Ow
223 75 2 0 27.694 8.346 23.261 # Hw
224 75 2 0 26.154 8.597 23.741 # Hw
225 75 4 0 27.092 8.936 23.8 # Ow
226 76 2 0 22.5 27.071 22.74 # Hw
227 76 2 0 23.877 27.081 21.863 # Hw
228 76 4 0 23.128 27.643 22.212 # Ow
229 77 2 0 24.475 12.305 17.876 # Hw
230 77 2 0 23.716 12.822 19.227 # Hw
231 77 4 0 24.099 12.025 18.76 # Ow
232 78 2 0 22.55 10.252 20.318 # Hw
233 78 2 0 21.69 10.063 18.943 # Hw
234 78 4 0 22.303 9.611 19.591 # Ow
235 79 2 0 25.058 20.436 10.229 # Hw
236 79 2 0 24.193 19.486 9.221 # Hw
237 79 4 0 24.202 20.353 9.719 # Ow
238 80 2 0 17.576 6.162 0.349 # Hw
239 80 2 0 16.29 5.218 -0.001 # Hw
240 80 4 0 16.596 6.031 0.495 # Ow
241 81 2 0 15.484 13.54 16.189 # Hw
242 81 2 0 16.831 13.424 15.273 # Hw
243 81 4 0 15.835 13.507 15.253 # Ow
244 82 2 0 17.697 22.739 16.955 # Hw
245 82 2 0 17.595 23.488 15.507 # Hw
246 82 4 0 17.266 23.488 16.451 # Ow
247 83 2 0 30.002 16.137 15.556 # Hw
248 83 2 0 29.988 14.504 15.523 # Hw
249 83 4 0 29.418 15.325 15.544 # Ow
250 84 2 0 -0 14.127 20.672 # Hw
251 84 2 0 0.34 15.711 20.472 # Hw
252 84 4 0 0.729 14.792 20.51 # Ow
253 85 2 0 29.963 8.159 28.044 # Hw
254 85 2 0 29.178 6.766 27.712 # Hw
255 85 4 0 30.052 7.164 27.988 # Ow
256 86 2 0 5.246 13.584 7.764 # Hw
257 86 2 0 5.747 12.03 7.808 # Hw
258 86 4 0 4.96 12.637 7.912 # Ow
259 87 2 0 30 8.268 11.796 # Hw
260 87 2 0 30.001 6.857 12.618 # Hw
261 87 4 0 29.425 7.581 12.24 # Ow
262 88 2 0 21.902 16.977 7.326 # Hw
263 88 2 0 20.956 17.963 6.431 # Hw
264 88 4 0 21.395 17.84 7.32 # Ow
265 89 2 0 8.511 18.771 20.662 # Hw
266 89 2 0 7.78 17.588 21.518 # Hw
267 89 4 0 8.661 17.953 21.218 # Ow
268 90 2 0 13.676 19.275 4.947 # Hw
269 90 2 0 13.806 20.358 3.732 # Hw
270 90 4 0 13.65 19.397 3.954 # Ow
271 91 2 0 27.911 20.055 9.386 # Hw
272 91 2 0 28.198 18.466 9.14 # Hw
273 91 4 0 28.62 19.369 9.223 # Ow
274 92 2 0 5.862 29.682 10.304 # Hw
275 92 2 0 7.243 29.366 9.491 # Hw
276 92 4 0 6.268 29.155 9.557 # Ow
277 93 2 0 4.68 13.226 28.267 # Hw
278 93 2 0 6.02 13.088 29.19 # Hw
279 93 4 0 5.622 12.891 28.295 # Ow
280 94 2 0 7.856 10.983 24.027 # Hw
281 94 2 0 8.094 12.089 25.206 # Hw
282 94 4 0 7.692 11.93 24.304 # Ow
283 95 2 0 14.744 5.426 5.412 # Hw
284 95 2 0 15.003 6.311 4.065 # Hw
285 95 4 0 15.442 5.788 4.795 # Ow
286 96 2 0 5.225 21.785 16.956 # Hw
287 96 2 0 5.019 21.543 18.558 # Hw
288 96 4 0 5.647 21.426 17.789 # Ow
289 97 2 0 22.667 14.917 -0.001 # Hw
290 97 2 0 24.177 15.265 0.513 # Hw
291 97 4 0 23.39 14.662 0.641 # Ow
292 98 2 0 25.894 6.644 18.75 # Hw
293 98 2 0 27.43 6.849 18.232 # Hw
294 98 4 0 26.736 7.171 18.875 # Ow
295 99 2 0 7.924 25.324 14.902 # Hw
296 99 2 0 8.874 26.651 14.936 # Hw
297 99 4 0 8.865 25.653 14.974 # Ow
298 100 2 0 27.911 2.033 18.923 # Hw
299 100 2 0 28.653 3.213 19.774 # Hw
300 100 4 0 27.939 3.017 19.103 # Ow
301 101 2 0 14.14 8.346 11.384 # Hw
302 101 2 0 14.379 7.862 12.925 # Hw
303 101 4 0 13.739 7.855 12.157 # Ow
304 102 2 0 9.05 13.546 0.826 # Hw
305 102 2 0 9.513 11.98 0.821 # Hw
306 102 4 0 8.729 12.599 0.862 # Ow
307 103 2 0 17.35 29.559 25.833 # Hw
308 103 2 0 18.063 30.002 24.432 # Hw
309 103 4 0 17.546 29.281 24.892 # Ow
310 104 2 0 8.662 28.725 28.583 # Hw
311 104 2 0 7.519 27.581 28.359 # Hw
312 104 4 0 7.918 28.218 29.018 # Ow
313 105 2 0 10.7 9.151 24.935 # Hw
314 105 2 0 10.209 10.44 25.81 # Hw
315 105 4 0 10.377 9.455 25.831 # Ow
316 106 2 0 15.043 29.979 23.992 # Hw
317 106 2 0 14.893 28.561 24.788 # Hw
318 106 4 0 14.406 29.374 24.469 # Ow
319 107 2 0 29.455 22.621 22.832 # Hw
320 107 2 0 29.477 20.988 22.85 # Hw
321 107 4 0 30.029 21.81 22.714 # Ow
322 108 2 0 18.77 15.364 15.095 # Hw
323 108 2 0 20.344 15.616 15.449 # Hw
324 108 4 0 19.563 15.949 14.921 # Ow
325 109 2 0 14.467 12.388 30.001 # Hw
326 109 2 0 12.846 12.192 29.998 # Hw
327 109 4 0 13.725 11.717 29.999 # Ow
328 110 2 0 7.316 7.443 10.619 # Hw
329 110 2 0 5.943 8.299 10.398 # Hw
330 110 4 0 6.933 8.362 10.52 # Ow
331 111 2 0 22.305 30 9.532 # Hw
332 111 2 0 23.935 29.999 9.437 # Hw
333 111 4 0 23.121 29.423 9.509 # Ow
334 112 2 0 20.221 21.119 3.998 # Hw
335 112 2 0 19.978 20.279 2.618 # Hw
336 112 4 0 20.187 21.179 3 # Ow
337 113 2 0 28.585 26.266 3.962 # Hw
338 113 2 0 27.545 27.524 3.929 # Hw
339 113 4 0 28 26.857 4.517 # Ow
340 114 2 0 19.595 1.688 27.36 # Hw
341 114 2 0 20.321 3.127 27.625 # Hw
342 114 4 0 19.534 2.555 27.855 # Ow
343 115 2 0 27.407 16.901 23.724 # Hw
344 115 2 0 28.938 17.454 23.854 # Hw
345 115 4 0 28.296 16.752 24.158 # Ow
346 116 2 0 9.378 2.612 6.115 # Hw
347 116 2 0 9.293 1.887 7.576 # Hw
348 116 4 0 9.048 2.704 7.055 # Ow
349 117 2 0 10.551 20.878 2.833 # Hw
350 117 2 0 10.981 20.158 4.234 # Hw
351 117 4 0 10.29 20.723 3.785 # Ow
352 118 2 0 11.755 11.273 2.729 # Hw
353 118 2 0 12.715 12.537 3.113 # Hw
354 118 4 0 12.285 11.704 3.46 # Ow
355 119 2 0 26.652 25.403 25.536 # Hw
356 119 2 0 26.421 26.881 24.881 # Hw
357 119 4 0 26.354 26.34 25.719 # Ow
358 120 2 0 13.106 20.553 18.457 # Hw
359 120 2 0 11.642 19.926 18.816 # Hw
360 120 4 0 12.152 20.771 18.661 # Ow
361 121 2 0 14.461 5.921 15.488 # Hw
362 121 2 0 14.261 6.288 17.066 # Hw
363 121 4 0 13.802 5.968 16.238 # Ow
364 122 2 0 26.915 25.204 21.96 # Hw
365 122 2 0 27.019 26.604 21.126 # Hw
366 122 4 0 26.411 26.012 21.656 # Ow
367 123 2 0 1.869 18.128 19.194 # Hw
368 123 2 0 2.46 19.549 19.742 # Hw
369 123 4 0 1.927 18.739 19.984 # Ow
370 124 2 0 28.97 3.8 11.335 # Hw
371 124 2 0 28.67 5.304 10.773 # Hw
372 124 4 0 28.633 4.711 11.577 # Ow
373 125 2 0 20.236 10.646 29.99 # Hw
374 125 2 0 20.376 9.019 30.001 # Hw
375 125 4 0 20.88 9.881 29.977 # Ow
376 126 2 0 11.554 0.347 7.177 # Hw
377 126 2 0 12.975 1.15 7.227 # Hw
378 126 4 0 11.989 1.226 7.372 # Ow
379 127 2 0 16.158 28.743 14.842 # Hw
380 127 2 0 15.544 27.879 16.085 # Hw
381 127 4 0 15.846 27.838 15.133 # Ow
382 128 2 0 19.825 18.632 27.526 # Hw
383 128 2 0 20.53 18.204 26.117 # Hw
384 128 4 0 19.858 17.938 26.807 # Ow
385 129 2 0 17.35 20.944 1.258 # Hw
386 129 2 0 16.156 20.47 2.267 # Hw
387 129 4 0 16.401 20.633 1.311 # Ow
388 130 2 0 7.327 5.662 -0.032 # Hw
389 130 2 0 8.111 4.243 0.166 # Hw
390 130 4 0 8.225 5.23 0.063 # Ow
391 131 2 0 24.889 11.904 15.171 # Hw
392 131 2 0 26.01 10.981 14.426 # Hw
393 131 4 0 25.661 11.911 14.536 # Ow
394 132 2 0 18.514 23.773 20.272 # Hw
395 132 2 0 19.818 23.074 19.581 # Hw
396 132 4 0 18.845 23.273 19.471 # Ow
397 133 2 0 9.99 29.755 16.612 # Hw
398 133 2 0 11.509 29.83 16.015 # Hw
399 133 4 0 10.76 29.218 16.266 # Ow
400 134 2 0 9.153 8.64 19.241 # Hw
401 134 2 0 10.779 8.663 19.089 # Hw
402 134 4 0 9.951 8.128 18.924 # Ow
403 135 2 0 29.664 20.173 3.405 # Hw
404 135 2 0 29.216 18.604 3.34 # Hw
405 135 4 0 28.889 19.542 3.45 # Ow
406 136 2 0 25.773 15.243 15.438 # Hw
407 136 2 0 26.44 13.96 16.198 # Hw
408 136 4 0 26.631 14.827 15.739 # Ow
409 137 2 0 13.515 7.687 19.313 # Hw
410 137 2 0 12.83 7.946 20.772 # Hw
411 137 4 0 12.958 7.28 20.038 # Ow
412 138 2 0 24.287 29.909 6.45 # Hw
413 138 2 0 22.852 29.854 5.673 # Hw
414 138 4 0 23.842 29.767 5.566 # Ow
415 139 2 0 10.442 9.777 21.581 # Hw
416 139 2 0 9.124 10.633 21.137 # Hw
417 139 4 0 9.451 9.865 21.687 # Ow
418 140 2 0 26.596 9.143 16.964 # Hw
419 140 2 0 27.723 10.198 16.433 # Hw
420 140 4 0 26.856 10.107 16.922 # Ow
421 141 2 0 7.596 5.706 24.074 # Hw
422 141 2 0 6.249 6.628 24.058 # Hw
423 141 4 0 6.597 5.692 24.036 # Ow
424 142 2 0 22.573 3.421 26.03 # Hw
425 142 2 0 21.338 3.21 24.984 # Hw
426 142 4 0 21.874 3.887 25.487 # Ow
427 143 2 0 9.507 2.378 26.62 # Hw
428 143 2 0 8.434 3.588 26.392 # Hw
429 143 4 0 8.563 2.597 26.372 # Ow
430 144 2 0 25.865 6.405 10.505 # Hw
431 144 2 0 26.04 6.398 12.128 # Hw
432 144 4 0 26.024 5.829 11.307 # Ow
433 145 2 0 22.345 26.459 2.127 # Hw
434 145 2 0 20.746 26.187 2.314 # Hw
435 145 4 0 21.528 26.069 1.702 # Ow
436 146 2 0 11.23 16.292 6.29 # Hw
437 146 2 0 9.952 17.308 6.289 # Hw
438 146 4 0 10.449 16.622 5.759 # Ow
439 147 2 0 27.268 9.823 20.982 # Hw
440 147 2 0 26.086 10.72 21.663 # Hw
441 147 4 0 27.074 10.618 21.557 # Ow
442 148 2 0 2.154 10.856 24.203 # Hw
443 148 2 0 0.773 11.4 23.524 # Hw
444 148 4 0 1.758 11.295 23.396 # Ow
445 149 2 0 8.266 7.847 27.106 # Hw
446 149 2 0 7.725 6.349 26.745 # Hw
447 149 4 0 7.46 7.257 27.067 # Ow
448 150 2 0 3.373 21.491 2.26 # Hw
449 150 2 0 3.672 20.426 3.461 # Hw
450 150 4 0 4.087 20.982 2.742 # Ow
451 151 2 0 29.762 14.885 10.457 # Hw
452 151 2 0 28.954 16.291 10.643 # Hw
453 151 4 0 28.921 15.379 10.236 # Ow
454 152 2 0 20.374 -0.015 13.71 # Hw
455 152 2 0 21.999 -0.007 13.873 # Hw
456 152 4 0 21.166 0.537 13.97 # Ow
457 153 2 0 0.086 27.22 9.897 # Hw
458 153 2 0 1.471 28.081 9.81 # Hw
459 153 4 0 1.085 27.163 9.894 # Ow
460 154 2 0 22.376 22.814 14.23 # Hw
461 154 2 0 22.117 24.14 13.313 # Hw
462 154 4 0 22.295 23.157 13.294 # Ow
463 155 2 0 15.372 18.734 27.647 # Hw
464 155 2 0 14.751 17.344 27.057 # Hw
465 155 4 0 15.136 18.234 26.814 # Ow
466 156 2 0 8.247 8.232 0.304 # Hw
467 156 2 0 9.5 9.278 0.302 # Hw
468 156 4 0 9.243 8.313 0.301 # Ow
469 157 2 0 8.394 19.757 25.49 # Hw
470 157 2 0 9.995 19.478 25.33 # Hw
471 157 4 0 9.127 19.556 24.84 # Ow
472 158 2 0 6.11 7.638 3.864 # Hw
473 158 2 0 7.377 8.369 3.137 # Hw
474 158 4 0 6.795 8.361 3.95 # Ow
475 159 2 0 5.327 18.425 24.821 # Hw
476 159 2 0 4.191 17.267 25.005 # Hw
477 159 4 0 4.353 18.215 24.734 # Ow
478 160 2 0 10.459 1.088 3.761 # Hw
479 160 2 0 11.628 -0.046 3.876 # Hw
480 160 4 0 10.655 0.108 3.712 # Ow
481 161 2 0 10.809 3.711 24.269 # Hw
482 161 2 0 9.47 2.903 23.796 # Hw
483 161 4 0 9.884 3.807 23.901 # Ow
484 162 2 0 4.093 7.888 26.443 # Hw
485 162 2 0 4.748 6.486 26.966 # Hw
486 162 4 0 4.52 7.029 26.158 # Ow
487 163 2 0 22.457 6.517 12.984 # Hw
488 163 2 0 23.719 5.556 13.371 # Hw
489 163 4 0 23.257 6.036 12.626 # Ow
490 164 2 0 2.721 -0.02 3.441 # Hw
491 164 2 0 1.224 -0.002 2.789 # Hw
492 164 4 0 1.823 0.419 3.47 # Ow
493 165 2 0 9.097 25.003 11.974 # Hw
494 165 2 0 9.354 23.39 11.943 # Hw
495 165 4 0 9.018 24.153 12.495 # Ow
496 166 2 0 10.759 23.507 14.558 # Hw
497 166 2 0 11.474 24.644 13.63 # Hw
498 166 4 0 11.589 24.05 14.425 # Ow
499 167 2 0 15.027 12.42 4.612 # Hw
500 167 2 0 16.009 11.254 4.027 # Hw
501 167 4 0 15.105 11.444 4.408 # Ow
502 168 2 0 8.701 2.494 10.392 # Hw
503 168 2 0 8.915 3.564 11.607 # Hw
504 168 4 0 8.552 3.439 10.685 # Ow
505 169 2 0 23.164 4.971 8.124 # Hw
506 169 2 0 23.453 3.989 9.396 # Hw
507 169 4 0 23.472 4.935 9.075 # Ow
508 170 2 0 6.495 21.815 30.006 # Hw
509 170 2 0 8.038 22.047 29.524 # Hw
510 170 4 0 7.262 22.457 30.001 # Ow
511 171 2 0 17.76 23.365 6.832 # Hw
512 171 2 0 17.588 24.376 5.562 # Hw
513 171 4 0 18.158 23.661 5.964 # Ow
514 172 2 0 20.778 21.016 26.536 # Hw
515 172 2 0 19.943 22.319 27.058 # Hw
516 172 4 0 19.937 21.322 26.981 # Ow
517 173 2 0 16.374 0.042 6.416 # Hw
518 173 2 0 17.615 1.057 6.108 # Hw
519 173 4 0 17.333 0.099 6.139 # Ow
520 174 2 0 25.387 16.878 10.252 # Hw
521 174 2 0 26.17 15.675 9.473 # Hw
522 174 4 0 25.274 16.066 9.678 # Ow
523 175 2 0 26.884 2.663 0.005 # Hw
524 175 2 0 26.464 1.696 1.252 # Hw
525 175 4 0 26.3 2.578 0.812 # Ow
526 176 2 0 18.055 6.315 16.568 # Hw
527 176 2 0 19.591 6.303 17.121 # Hw
528 176 4 0 18.737 5.786 17.072 # Ow
529 177 2 0 0.172 6.817 7.494 # Hw
530 177 2 0 1.564 7.628 7.224 # Hw
531 177 4 0 1.13 6.728 7.219 # Ow
532 178 2 0 22.5 15.112 29.953 # Hw
533 178 2 0 21.145 14.203 30.023 # Hw
534 178 4 0 22.127 14.19 29.84 # Ow
535 179 2 0 28.603 12.729 19.094 # Hw
536 179 2 0 27.175 12.429 18.361 # Hw
537 179 4 0 28.12 12.119 18.466 # Ow
538 180 2 0 24.998 19.673 1.878 # Hw
539 180 2 0 25.605 21.18 1.704 # Hw
540 180 4 0 25.837 20.211 1.786 # Ow
541 181 2 0 25.192 17.653 7.433 # Hw
542 181 2 0 26.157 18.969 7.367 # Hw
543 181 4 0 26.14 17.97 7.386 # Ow
544 182 2 0 27.864 15.06 7.395 # Hw
545 182 2 0 29.429 14.901 6.96 # Hw
546 182 4 0 28.553 15.316 6.717 # Ow
547 183 2 0 26.658 18.944 21.894 # Hw
548 183 2 0 28.151 19.029 21.238 # Hw
549 183 4 0 27.627 19.102 22.086 # Ow
550 184 2 0 29.778 19.377 25.737 # Hw
551 184 2 0 29.887 20.998 25.569 # Hw
552 184 4 0 29.257 20.224 25.626 # Ow
553 185 2 0 11.449 -0 0 # Hw
554 185 2 0 11.696 0.944 1.309 # Hw
555 185 4 0 11.344 0.064 0.993 # Ow
556 186 2 0 8.412 14.756 13.598 # Hw
557 186 2 0 8.527 13.135 13.435 # Hw
558 186 4 0 9.045 13.986 13.506 # Ow
559 187 2 0 0.052 7.814 4.934 # Hw
560 187 2 0 -0.001 7.895 3.304 # Hw
561 187 4 0 0.069 8.429 4.146 # Ow
562 188 2 0 26.347 18.183 0.001 # Hw
563 188 2 0 26.571 16.566 0.041 # Hw
564 188 4 0 26.014 17.321 0.384 # Ow
565 189 2 0 22.754 23.583 21.194 # Hw
566 189 2 0 21.851 22.473 21.981 # Hw
567 189 4 0 21.823 23.316 21.444 # Ow
568 190 2 0 30.007 18.324 7.074 # Hw
569 190 2 0 28.831 17.988 5.992 # Hw
570 190 4 0 29.755 17.753 6.293 # Ow
571 191 2 0 18.726 17.128 -0.002 # Hw
572 191 2 0 18.381 18.724 0.004 # Hw
573 191 4 0 19.117 18.049 0.014 # Ow
574 192 2 0 1.705 0.007 11.039 # Hw
575 192 2 0 2.923 -0.005 9.952 # Hw
576 192 4 0 1.93 0.001 10.065 # Ow
577 193 2 0 7.098 8.583 21.069 # Hw
578 193 2 0 6.53 9.955 21.747 # Hw
579 193 4 0 6.417 8.964 21.695 # Ow
580 194 2 0 8.173 25.717 17.843 # Hw
581 194 2 0 8.82 24.343 18.444 # Hw
582 194 4 0 8.587 25.293 18.649 # Ow
583 195 2 0 0.205 2.351 9.724 # Hw
584 195 2 0 0.654 1.682 8.303 # Hw
585 195 4 0 0.913 2.332 9.017 # Ow
586 196 2 0 23.97 9.565 16.268 # Hw
587 196 2 0 22.666 10.506 15.985 # Hw
588 196 4 0 23.267 10.137 16.692 # Ow
589 197 2 0 23.881 2.276 28.484 # Hw
590 197 2 0 24.258 1.802 30.001 # Hw
591 197 4 0 24.352 2.535 29.328 # Ow
592 198 2 0 21.271 13.307 5.667 # Hw
593 198 2 0 20.755 14.823 5.987 # Hw
594 198 4 0 20.65 14.036 5.38 # Ow
595 199 2 0 6.195 19.15 19.23 # Hw
596 199 2 0 5.896 17.649 18.66 # Hw
597 199 4 0 6.58 18.375 18.728 # Ow
598 200 2 0 23.91 5.731 25.368 # Hw
599 200 2 0 22.542 6.613 25.233 # Hw
600 200 4 0 23.292 6.358 25.843 # Ow
601 201 2 0 5.235 21.318 11.957 # Hw
602 201 2 0 4.599 21.607 13.433 # Hw
603 201 4 0 4.517 21.058 12.602 # Ow
604 202 2 0 22.496 17.719 20.376 # Hw
605 202 2 0 21.701 18.147 19.016 # Hw
606 202 4 0 22.591 17.899 19.397 # Ow
607 203 2 0 28.607 16.356 1.878 # Hw
608 203 2 0 27.943 15.189 2.807 # Hw
609 203 4 0 27.835 16.123 2.469 # Ow
610 204 2 0 27.577 23.694 5.931 # Hw
611 204 2 0 28.209 23.081 4.556 # Hw
612 204 4 0 28.328 23.159 5.545 # Ow
613 205 2 0 20.115 21.275 14.503 # Hw
614 205 2 0 18.499 21.058 14.592 # Hw
615 205 4 0 19.321 21.287 15.112 # Ow
616 206 2 0 6.965 10.676 -0.001 # Hw
617 206 2 0 5.338 10.543 -0.025 # Hw
618 206 4 0 6.194 10.055 0.138 # Ow
619 207 2 0 6.922 19.736 23.006 # Hw
620 207 2 0 7.275 20.889 21.905 # Hw
621 207 4 0 7.616 20.387 22.699 # Ow
622 208 2 0 5.819 0.421 1.558 # Hw
623 208 2 0 5.391 0.561 3.128 # Hw
624 208 4 0 5.859 -0.015 2.458 # Ow
625 209 2 0 23.845 18.006 24.464 # Hw
626 209 2 0 25.145 18.955 24.19 # Hw
627 209 4 0 24.834 18.014 24.318 # Ow
628 210 2 0 21.292 22.543 6.386 # Hw
629 210 2 0 19.933 21.686 6.682 # Hw
630 210 4 0 20.928 21.637 6.604 # Ow
631 211 2 0 11.654 12.787 24.104 # Hw
632 211 2 0 10.585 12.064 23.102 # Hw
633 211 4 0 10.693 12.743 23.827 # Ow
634 212 2 0 15.119 6.523 29.418 # Hw
635 212 2 0 16.346 7.483 29.908 # Hw
636 212 4 0 16.113 6.603 29.496 # Ow
637 213 2 0 29.039 27.518 19.071 # Hw
638 213 2 0 28.055 27.702 17.782 # Hw
639 213 4 0 28.24 28.003 18.716 # Ow
640 214 2 0 13.317 18.34 20.313 # Hw
641 214 2 0 13.354 17.724 18.801 # Hw
642 214 4 0 13.058 17.561 19.742 # Ow
643 215 2 0 11.571 4.636 12.756 # Hw
644 215 2 0 12.74 5.598 13.369 # Hw
645 215 4 0 11.875 5.583 12.868 # Ow
646 216 2 0 8.552 15.021 22.128 # Hw
647 216 2 0 7.918 13.517 22.069 # Hw
648 216 4 0 8.743 14.061 21.923 # Ow
649 217 2 0 22.82 22.005 3.854 # Hw
650 217 2 0 22.812 20.445 3.37 # Hw
651 217 4 0 23.39 21.206 3.662 # Ow
652 218 2 0 -0.018 5.312 1.981 # Hw
653 218 2 0 1.033 5.348 3.23 # Hw
654 218 4 0 0.716 4.816 2.445 # Ow
655 219 2 0 11.16 23.362 20.114 # Hw
656 219 2 0 12.74 23.24 19.72 # Hw
657 219 4 0 11.899 23.758 19.569 # Ow
658 220 2 0 25.28 16.538 21.654 # Hw
659 220 2 0 24.771 15.645 22.922 # Hw
660 220 4 0 24.517 16.01 22.028 # Ow
661 221 2 0 20.057 4.572 30.001 # Hw
662 221 2 0 20.102 5.688 28.81 # Hw
663 221 4 0 19.983 5.547 29.792 # Ow
664 222 2 0 3.831 15.127 23.311 # Hw
665 222 2 0 2.463 14.5 22.677 # Hw
666 222 4 0 3.097 15.272 22.647 # Ow
667 223 2 0 0.303 24.192 11.308 # Hw
668 223 2 0 0.507 24.481 9.714 # Hw
669 223 4 0 -0.01 23.955 10.388 # Ow
670 224 2 0 17.57 28.94 30.001 # Hw
671 224 2 0 16.414 30 29.548 # Hw
672 224 4 0 16.585 29.105 29.959 # Ow
673 225 2 0 14.883 12.042 9.614 # Hw
674 225 2 0 13.972 10.798 10.152 # Hw
675 225 4 0 14.314 11.712 10.368 # Ow
676 226 2 0 21.427 10.766 7.417 # Hw
677 226 2 0 21.952 9.853 8.665 # Hw
678 226 4 0 21.762 10.785 8.359 # Ow
679 227 2 0 0.877 23.387 18.994 # Hw
680 227 2 0 1.252 24.714 19.868 # Hw
681 227 4 0 0.771 24.379 19.059 # Ow
682 228 2 0 11.712 0.136 14.749 # Hw
683 228 2 0 12.704 0 13.459 # Hw
684 228 4 0 12.659 -0.001 14.457 # Ow
685 229 2 0 9.143 8.17 12.54 # Hw
686 229 2 0 9.197 9.688 13.141 # Hw
687 229 4 0 9.746 8.903 12.856 # Ow
688 230 2 0 28.747 11.966 10.538 # Hw
689 230 2 0 27.615 13.068 10.953 # Hw
690 230 4 0 27.773 12.11 10.717 # Ow
691 231 2 0 3.835 27.365 11.024 # Hw
692 231 2 0 5.439 27.122 11.213 # Hw
693 231 4 0 4.591 26.731 10.856 # Ow
694 232 2 0 10.589 29.053 9.297 # Hw
695 232 2 0 11.908 30.001 9.466 # Hw
696 232 4 0 11.584 29.058 9.394 # Ow
697 233 2 0 25.056 20.754 28.304 # Hw
698 233 2 0 23.517 20.994 27.813 # Hw
699 233 4 0 24.31 20.39 27.745 # Ow
700 234 2 0 21.847 0.624 16.655 # Hw
701 234 2 0 23.447 0.341 16.491 # Hw
702 234 4 0 22.563 -0.074 16.701 # Ow
703 235 2 0 6.629 12.68 15.371 # Hw
704 235 2 0 5.903 11.491 16.224 # Hw
705 235 4 0 6.71 11.734 15.686 # Ow
706 236 2 0 27.148 23.956 28.814 # Hw
707 236 2 0 27.686 23.491 27.344 # Hw
708 236 4 0 26.935 23.416 27.999 # Ow
709 237 2 0 3.188 7.46 11.781 # Hw
710 237 2 0 2.418 8.231 12.997 # Hw
711 237 4 0 2.565 8.209 12.009 # Ow
712 238 2 0 14.1 6.689 8.999 # Hw
713 238 2 0 13.545 5.189 9.332 # Hw
714 238 4 0 13.345 6.048 8.861 # Ow
715 239 2 0 4.764 9.733 28.509 # Hw
716 239 2 0 4.425 9.027 29.941 # Hw
717 239 4 0 4.578 8.864 28.967 # Ow
718 240 2 0 24.374 25.642 29.999 # Hw
719 240 2 0 24.734 27.235 29.998 # Hw
720 240 4 0 23.991 26.566 29.998 # Ow
721 241 2 0 19.206 19.527 18.535 # Hw
722 241 2 0 17.868 20.137 17.825 # Hw
723 241 4 0 18.454 20.179 18.634 # Ow
724 242 2 0 19.051 25.694 7.586 # Hw
725 242 2 0 19.642 27.216 7.563 # Hw
726 242 4 0 19.866 26.256 7.729 # Ow
727 243 2 0 21.792 19.383 16.022 # Hw
728 243 2 0 20.567 18.445 15.489 # Hw
729 243 4 0 20.822 19.166 16.132 # Ow
730 244 2 0 17.159 10.289 25.588 # Hw
731 244 2 0 15.873 9.487 24.979 # Hw
732 244 4 0 16.252 10.39 25.179 # Ow
733 245 2 0 24.287 9.429 0.623 # Hw
734 245 2 0 25.33 8.239 0.22 # Hw
735 245 4 0 25.097 8.919 0.914 # Ow
736 246 2 0 2.925 30.004 12.302 # Hw
737 246 2 0 1.694 30.007 13.375 # Hw
738 246 4 0 1.946 29.837 12.423 # Ow
739 247 2 0 15.963 1.226 15.114 # Hw
740 247 2 0 14.735 0.834 16.117 # Hw
741 247 4 0 15.218 0.579 15.28 # Ow
742 248 2 0 19.873 15.416 2.162 # Hw
743 248 2 0 20.325 16.983 2.242 # Hw
744 248 4 0 19.608 16.328 2.476 # Ow
745 249 2 0 24.649 2.284 13.668 # Hw
746 249 2 0 25.071 2.28 15.245 # Hw
747 249 4 0 25.021 1.73 14.412 # Ow
748 250 2 0 17.983 1.761 24.598 # Hw
749 250 2 0 16.357 1.803 24.453 # Hw
750 250 4 0 17.22 1.741 23.952 # Ow
751 251 2 0 19.79 21.087 -0.004 # Hw
752 251 2 0 21.386 21.431 0.002 # Hw
753 251 4 0 20.71 20.695 -0 # Ow
754 252 2 0 24.194 5.458 1.379 # Hw
755 252 2 0 23.54 3.962 1.381 # Hw
756 252 4 0 24.396 4.479 1.381 # Ow
757 253 2 0 8.977 4.698 21.463 # Hw
758 253 2 0 7.938 5.914 21.134 # Hw
759 253 4 0 8.015 4.972 21.457 # Ow
760 254 2 0 7.253 22.318 13.535 # Hw
761 254 2 0 7.37 20.69 13.572 # Hw
762 254 4 0 7.797 21.532 13.243 # Ow
763 255 2 0 16.239 3.018 28.517 # Hw
764 255 2 0 17.355 4.038 29.132 # Hw
765 255 4 0 16.395 3.938 28.876 # Ow
766 256 2 0 15.785 10.725 20.043 # Hw
767 256 2 0 15.169 9.389 20.754 # Hw
768 256 4 0 15.842 9.727 20.097 # Ow
769 257 2 0 21.011 14.719 9.994 # Hw
770 257 2 0 19.413 15.049 10.037 # Hw
771 257 4 0 20.328 15.449 10.004 # Ow
772 258 2 0 15.31 0.979 8.754 # Hw
773 258 2 0 15.014 -0.001 10.026 # Hw
774 258 4 0 14.806 0.173 9.064 # Ow
775 259 2 0 17.094 27.476 6.567 # Hw
776 259 2 0 18.128 27.84 5.356 # Hw
777 259 4 0 17.567 27.119 5.761 # Ow
778 260 2 0 4.099 8.484 5.529 # Hw
779 260 2 0 4.601 9.268 6.871 # Hw
780 260 4 0 4.898 8.815 6.031 # Ow
781 261 2 0 16.113 10.772 14.378 # Hw
782 261 2 0 17.525 9.957 14.276 # Hw
783 261 4 0 17.107 10.864 14.307 # Ow
784 262 2 0 2.823 29.533 24.405 # Hw
785 262 2 0 4.226 29.933 25.139 # Hw
786 262 4 0 3.23 30.008 25.185 # Ow
787 263 2 0 5.403 24.348 23.766 # Hw
788 263 2 0 6.323 23.147 23.151 # Hw
789 263 4 0 5.403 23.398 23.451 # Ow
790 264 2 0 5.508 11.402 19.122 # Hw
791 264 2 0 6.824 10.437 19.056 # Hw
792 264 4 0 5.826 10.453 19.109 # Ow
793 265 2 0 18.055 6.277 20.388 # Hw
794 265 2 0 17.584 5.024 19.452 # Hw
795 265 4 0 17.574 6.019 19.55 # Ow
796 266 2 0 22.312 7.5 17.186 # Hw
797 266 2 0 22.318 7.487 15.553 # Hw
798 266 4 0 21.834 7.813 16.364 # Ow
799 267 2 0 12.742 17.837 22.987 # Hw
800 267 2 0 11.739 16.932 22.07 # Hw
801 267 4 0 12.312 16.939 22.889 # Ow
802 268 2 0 19.578 16.177 24.521 # Hw
803 268 2 0 19.772 14.569 24.73 # Hw
804 268 4 0 20.145 15.47 24.946 # Ow
805 269 2 0 19.317 25.883 28.134 # Hw
806 269 2 0 17.922 26.603 28.584 # Hw
807 269 4 0 18.519 26.392 27.811 # Ow
808 270 2 0 1.136 10.695 13.55 # Hw
809 270 2 0 2.196 10.915 12.327 # Hw
810 270 4 0 1.252 10.682 12.556 # Ow
811 271 2 0 4.14 22.227 28.646 # Hw
812 271 2 0 4.124 23.207 29.952 # Hw
813 271 4 0 3.767 23.072 29.028 # Ow
814 272 2 0 23.088 18.015 27.108 # Hw
815 272 2 0 22.161 16.973 27.957 # Hw
816 272 4 0 23.02 17.08 27.457 # Ow
817 273 2 0 7.398 5.501 2.712 # Hw
818 273 2 0 7.982 5.01 4.155 # Hw
819 273 4 0 8.034 5.718 3.452 # Ow