LAMMPS data file for mol object with MOF-FF params from www.mofplus.org

      2176 atoms
      2552 bonds
      4568 angles
      8064 dihedrals
      1280 impropers
         6 atom types
         6 bond types
         9 angle types
        13 dihedral types
         4 improper types

    0.000000    30.846200  xlo xhi
    0.000000    30.808400  ylo yhi
    0.000000    36.875800  zlo zhi
    0.000000     0.000000     0.000000  xy xz yz

Masses

    1    12.0107 # buck6d->(c3_h1n2@imid)|ZIF8_H/gaussian->(c3_h1n2@imid)|ZIF8_H
    2     1.0079 # buck6d->(h1_c1S@imid)|ZIF8_H/gaussian->(h1_c1S@imid)|ZIF8_H
    3    12.0107 # buck6d->(c3_c1h1n1@imid)|ZIF8_H/gaussian->(c3_c1h1n1@imid)|ZIF8_H
    4     1.0079 # buck6d->(h1_c1@imid)|ZIF8_H/gaussian->(h1_c1@imid)|ZIF8_H
    5    14.0067 # buck6d->(n3_c2zn1@imid)|ZIF8_H/gaussian->(n3_c2zn1@imid)|ZIF8_H
    6    65.3800 # buck6d->(zn4_n4@zn4tet)|ZIF8_H/gaussian->(zn4_n4@zn4tet)|ZIF8_H

Atoms

         1     1     1  -0.05190000     4.993691     3.604275     7.225444 # buck6d->(c3_h1n2@imid)|ZIF8_H
         2     1     2   0.11450000     5.051528     4.202266     8.104932 # buck6d->(h1_c1S@imid)|ZIF8_H
         3     1     3  -0.15040000     4.277134     2.528753     5.442131 # buck6d->(c3_c1h1n1@imid)|ZIF8_H
         4     1     4   0.14200000     3.666688     1.835256     4.808051 # buck6d->(h1_c1@imid)|ZIF8_H
         5     1     3  -0.15040000     5.467952     3.208387     5.147862 # buck6d->(c3_c1h1n1@imid)|ZIF8_H
         6     1     4   0.14200000     5.962725     3.248438     4.118658 # buck6d->(h1_c1@imid)|ZIF8_H
         7     1     3  -0.15040000     1.071443     0.421151     7.329987 # buck6d->(c3_c1h1n1@imid)|ZIF8_H
         8     1     4   0.14200000     0.695736     0.365388     8.387032 # buck6d->(h1_c1@imid)|ZIF8_H
         9     1     3  -0.15040000     0.193868     4.962155     7.076650 # buck6d->(c3_c1h1n1@imid)|ZIF8_H
        10     1     4   0.14200000    14.938352     4.910705     7.896031 # buck6d->(h1_c1@imid)|ZIF8_H
        11     1     1  -0.05190000     1.917091     4.975094     5.715380 # buck6d->(c3_h1n2@imid)|ZIF8_H
        12     1     2   0.11450000     2.810089     4.554406     5.335744 # buck6d->(h1_c1S@imid)|ZIF8_H
        13     1     1  -0.05190000    14.244004    13.919543    11.407529 # buck6d->(c3_h1n2@imid)|ZIF8_H
        14     1     2   0.11450000    15.248511    13.777208    10.982720 # buck6d->(h1_c1S@imid)|ZIF8_H
        15     1     3  -0.15040000     7.111746     5.400867     2.689721 # buck6d->(c3_c1h1n1@imid)|ZIF8_H
        16     1     4   0.14200000     6.347531     6.146584     2.528574 # buck6d->(h1_c1@imid)|ZIF8_H
        17     1     1  -0.05190000     4.486734     7.146625     4.827411 # buck6d->(c3_h1n2@imid)|ZIF8_H
        18     1     2   0.11450000     4.274049     6.227148     4.272983 # buck6d->(h1_c1S@imid)|ZIF8_H
        19     1     3  -0.15040000     5.457155     8.481398     6.198638 # buck6d->(c3_c1h1n1@imid)|ZIF8_H
        20     1     4   0.14200000     6.172942     8.677956     6.973029 # buck6d->(h1_c1@imid)|ZIF8_H
        21     1     3  -0.15040000     2.479263     0.890825    11.108650 # buck6d->(c3_c1h1n1@imid)|ZIF8_H
        22     1     4   0.14200000     2.718476    15.336730    11.643903 # buck6d->(h1_c1@imid)|ZIF8_H
        23     1     3  -0.15040000    12.615787    14.608881    12.674397 # buck6d->(c3_c1h1n1@imid)|ZIF8_H
        24     1     4   0.14200000    12.139059    15.215807    13.442335 # buck6d->(h1_c1@imid)|ZIF8_H
        25     1     5  -0.15320000     3.990419     2.712217     6.769106 # buck6d->(n3_c2zn1@imid)|ZIF8_H
        26     1     5  -0.15320000     5.827618     3.956415     6.192737 # buck6d->(n3_c2zn1@imid)|ZIF8_H
        27     1     5  -0.15320000     1.314202     1.638237    11.392041 # buck6d->(n3_c2zn1@imid)|ZIF8_H
        28     1     5  -0.15320000     1.822085    14.827159     6.708630 # buck6d->(n3_c2zn1@imid)|ZIF8_H
        29     1     5  -0.15320000     1.333790     4.201804     6.703467 # buck6d->(n3_c2zn1@imid)|ZIF8_H
        30     1     5  -0.15320000    13.887268    14.947465    12.207734 # buck6d->(n3_c2zn1@imid)|ZIF8_H
        31     1     5  -0.15320000     7.648778     5.130061     3.984799 # buck6d->(n3_c2zn1@imid)|ZIF8_H
        32     1     5  -0.15320000     5.616322     7.274171     5.530264 # buck6d->(n3_c2zn1@imid)|ZIF8_H
        33     1     6   0.52120000     2.148592     2.727930     7.589777 # buck6d->(zn4_n4@zn4tet)|ZIF8_H
        34     1     6   0.52120000     6.863434     5.749618     5.805542 # buck6d->(zn4_n4@zn4tet)|ZIF8_H
        35     1     1  -0.05190000     1.122956    11.149714    16.103109 # buck6d->(c3_h1n2@imid)|ZIF8_H
        36     1     2   0.11450000     0.438479    11.537438    15.352871 # buck6d->(h1_c1S@imid)|ZIF8_H
        37     1     3  -0.15040000     2.817955    10.886148    17.454238 # buck6d->(c3_c1h1n1@imid)|ZIF8_H
        38     1     4   0.14200000     3.635687    11.283268    18.095693 # buck6d->(h1_c1@imid)|ZIF8_H
        39     1     3  -0.15040000     2.056516     9.700179    17.538684 # buck6d->(c3_c1h1n1@imid)|ZIF8_H
        40     1     4   0.14200000     2.155841     8.806273    18.144737 # buck6d->(h1_c1@imid)|ZIF8_H
        41     1     3  -0.15040000     8.649583    13.633025    13.145301 # buck6d->(c3_c1h1n1@imid)|ZIF8_H
        42     1     4   0.14200000     9.091455    12.540559    13.129629 # buck6d->(h1_c1@imid)|ZIF8_H
        43     1     3  -0.15040000     3.371335    12.308264    11.901111 # buck6d->(c3_c1h1n1@imid)|ZIF8_H
        44     1     4   0.14200000     3.190885    11.721672    10.992307 # buck6d->(h1_c1@imid)|ZIF8_H
        45     1     1  -0.05190000     4.495525    13.649816    13.204302 # buck6d->(c3_h1n2@imid)|ZIF8_H
        46     1     2   0.11450000     5.242929    14.456688    13.531390 # buck6d->(h1_c1S@imid)|ZIF8_H
        47     1     1  -0.05190000    13.840381    10.110239     0.053839 # buck6d->(c3_h1n2@imid)|ZIF8_H
        48     1     2   0.11450000    14.828385    10.462841     0.323032 # buck6d->(h1_c1S@imid)|ZIF8_H
        49     1     3  -0.15040000    14.165500     7.753088    13.064358 # buck6d->(c3_c1h1n1@imid)|ZIF8_H
        50     1     4   0.14200000    14.332533     6.703292    13.346827 # buck6d->(h1_c1@imid)|ZIF8_H
        51     1     1  -0.05190000     0.949138     6.153824    16.608307 # buck6d->(c3_h1n2@imid)|ZIF8_H
        52     1     2   0.11450000     1.843369     6.720698    16.415078 # buck6d->(h1_c1S@imid)|ZIF8_H
        53     1     3  -0.15040000    14.277009     5.793057    17.083267 # buck6d->(c3_c1h1n1@imid)|ZIF8_H
        54     1     4   0.14200000    13.226388     5.904584    17.117746 # buck6d->(h1_c1@imid)|ZIF8_H
        55     1     3  -0.15040000     6.086109    12.955856    16.991447 # buck6d->(c3_c1h1n1@imid)|ZIF8_H
        56     1     4   0.14200000     6.658307    13.152876    16.050376 # buck6d->(h1_c1@imid)|ZIF8_H
        57     1     3  -0.15040000    12.254578     9.659204    17.033670 # buck6d->(c3_c1h1n1@imid)|ZIF8_H
        58     1     4   0.14200000    11.837383     9.315998    16.031570 # buck6d->(h1_c1@imid)|ZIF8_H
        59     1     5  -0.15320000     2.236658    11.780978    16.619554 # buck6d->(n3_c2zn1@imid)|ZIF8_H
        60     1     5  -0.15320000     1.058333     9.895504    16.600379 # buck6d->(n3_c2zn1@imid)|ZIF8_H
        61     1     5  -0.15320000     4.851799    13.407816    17.243308 # buck6d->(n3_c2zn1@imid)|ZIF8_H
        62     1     5  -0.15320000     8.007057    14.256895    12.053593 # buck6d->(n3_c2zn1@imid)|ZIF8_H
        63     1     5  -0.15320000     4.388489    13.334954    11.930981 # buck6d->(n3_c2zn1@imid)|ZIF8_H
        64     1     5  -0.15320000    13.570940     9.551528    17.278709 # buck6d->(n3_c2zn1@imid)|ZIF8_H
        65     1     5  -0.15320000    14.448360     8.724477    14.027001 # buck6d->(n3_c2zn1@imid)|ZIF8_H
        66     1     5  -0.15320000    15.128210     6.765833    16.621398 # buck6d->(n3_c2zn1@imid)|ZIF8_H
        67     1     6   0.52120000     3.248413    13.347893    15.968881 # buck6d->(zn4_n4@zn4tet)|ZIF8_H
        68     1     6   0.52120000    14.925088     8.726171    16.083196 # buck6d->(zn4_n4@zn4tet)|ZIF8_H
        69     1     1  -0.05190000     9.328662    11.848294     2.527099 # buck6d->(c3_h1n2@imid)|ZIF8_H
        70     1     2   0.11450000     9.492455    12.900863     2.205726 # buck6d->(h1_c1S@imid)|ZIF8_H
        71     1     3  -0.15040000     9.611830     9.720974     3.236958 # buck6d->(c3_c1h1n1@imid)|ZIF8_H
        72     1     4   0.14200000    10.211480     8.808584     3.462822 # buck6d->(h1_c1@imid)|ZIF8_H
        73     1     3  -0.15040000     8.247040    10.042922     3.274018 # buck6d->(c3_c1h1n1@imid)|ZIF8_H
        74     1     4   0.14200000     7.394143     9.472813     3.670064 # buck6d->(h1_c1@imid)|ZIF8_H
        75     1     3  -0.15040000    13.878631    10.088211     4.865577 # buck6d->(c3_c1h1n1@imid)|ZIF8_H
        76     1     4   0.14200000    13.216517    10.727485     5.455221 # buck6d->(h1_c1@imid)|ZIF8_H
        77     1     3  -0.15040000    12.331848    13.479291     4.345076 # buck6d->(c3_c1h1n1@imid)|ZIF8_H
        78     1     4   0.14200000    11.439005    13.179679     4.916466 # buck6d->(h1_c1@imid)|ZIF8_H
        79     1     1  -0.05190000    13.879093    13.497160     2.772691 # buck6d->(c3_h1n2@imid)|ZIF8_H
        80     1     2   0.11450000    14.510824    13.243915     1.880666 # buck6d->(h1_c1S@imid)|ZIF8_H
        81     1     1  -0.05190000     4.581123    13.288587     0.086658 # buck6d->(c3_h1n2@imid)|ZIF8_H
        82     1     2   0.11450000     3.617025    13.483758     0.481967 # buck6d->(h1_c1S@imid)|ZIF8_H
        83     1     3  -0.15040000     3.596667    11.741081     3.531595 # buck6d->(c3_c1h1n1@imid)|ZIF8_H
        84     1     4   0.14200000     3.446754    11.497541     2.456481 # buck6d->(h1_c1@imid)|ZIF8_H
        85     1     1  -0.05190000     7.856990    15.260633     2.233383 # buck6d->(c3_h1n2@imid)|ZIF8_H
        86     1     2   0.11450000     7.563642    15.313777     1.175969 # buck6d->(h1_c1S@imid)|ZIF8_H
        87     1     3  -0.15040000     8.230692    14.595479     4.321844 # buck6d->(c3_c1h1n1@imid)|ZIF8_H
        88     1     4   0.14200000     8.275573    13.908760     5.151734 # buck6d->(h1_c1@imid)|ZIF8_H
        89     1     3  -0.15040000    11.671739    10.406615    18.090161 # buck6d->(c3_c1h1n1@imid)|ZIF8_H
        90     1     4   0.14200000    10.683736    10.730874    18.172394 # buck6d->(h1_c1@imid)|ZIF8_H
        91     1     3  -0.15040000     6.617281    12.510367    18.226049 # buck6d->(c3_c1h1n1@imid)|ZIF8_H
        92     1     4   0.14200000     7.616389    12.255582     0.002397 # buck6d->(h1_c1@imid)|ZIF8_H
        93     1     5  -0.15320000    10.308800    10.855032     2.736369 # buck6d->(n3_c2zn1@imid)|ZIF8_H
        94     1     5  -0.15320000     8.080008    11.403113     2.744666 # buck6d->(n3_c2zn1@imid)|ZIF8_H
        95     1     5  -0.15320000    12.693057    10.762298     0.504645 # buck6d->(n3_c2zn1@imid)|ZIF8_H
        96     1     5  -0.15320000    13.679673     9.861769     3.493245 # buck6d->(n3_c2zn1@imid)|ZIF8_H
        97     1     5  -0.15320000    12.803641    12.783329     3.214279 # buck6d->(n3_c2zn1@imid)|ZIF8_H
        98     1     5  -0.15320000     5.636372    12.720942     0.739544 # buck6d->(n3_c2zn1@imid)|ZIF8_H
        99     1     5  -0.15320000     4.853187    12.167161     3.832871 # buck6d->(n3_c2zn1@imid)|ZIF8_H
       100     1     5  -0.15320000     7.528478    14.312966     3.166341 # buck6d->(n3_c2zn1@imid)|ZIF8_H
       101     1     6   0.52120000    12.326450    11.060524     2.452241 # buck6d->(zn4_n4@zn4tet)|ZIF8_H
       102     1     6   0.52120000     6.494822    12.610186     2.686033 # buck6d->(zn4_n4@zn4tet)|ZIF8_H
       103     1     1  -0.05190000    12.737476     2.443722    11.252097 # buck6d->(c3_h1n2@imid)|ZIF8_H
       104     1     2   0.11450000    12.392461     1.481884    10.872830 # buck6d->(h1_c1S@imid)|ZIF8_H
       105     1     3  -0.15040000    12.761073     4.557179    11.857413 # buck6d->(c3_c1h1n1@imid)|ZIF8_H
       106     1     4   0.14200000    12.371177     5.570775    11.933193 # buck6d->(h1_c1@imid)|ZIF8_H
       107     1     3  -0.15040000    13.722549     3.850434    12.554182 # buck6d->(c3_c1h1n1@imid)|ZIF8_H
       108     1     4   0.14200000    14.479823     4.335358    13.243759 # buck6d->(h1_c1@imid)|ZIF8_H
       109     1     3  -0.15040000    10.328233     6.367326     7.987298 # buck6d->(c3_c1h1n1@imid)|ZIF8_H
       110     1     4   0.14200000    11.230793     6.896152     8.352000 # buck6d->(h1_c1@imid)|ZIF8_H
       111     1     3  -0.15040000     7.061466     3.922217    12.443739 # buck6d->(c3_c1h1n1@imid)|ZIF8_H
       112     1     4   0.14200000     5.996347     3.938238    12.799959 # buck6d->(h1_c1@imid)|ZIF8_H
       113     1     1  -0.05190000     9.142197     3.555289    12.833885 # buck6d->(c3_h1n2@imid)|ZIF8_H
       114     1     2   0.11450000    10.050155     3.275703    13.378725 # buck6d->(h1_c1S@imid)|ZIF8_H
       115     1     1  -0.05190000     1.142389     2.483465    10.320430 # buck6d->(c3_h1n2@imid)|ZIF8_H
       116     1     2   0.11450000     0.506803     3.396934    10.403216 # buck6d->(h1_c1S@imid)|ZIF8_H
       117     1     3  -0.15040000     3.042206     1.471409     0.719262 # buck6d->(c3_c1h1n1@imid)|ZIF8_H
       118     1     4   0.14200000     4.109331     1.470793     0.573419 # buck6d->(h1_c1@imid)|ZIF8_H
       119     1     1  -0.05190000     1.506991    15.274189    14.496799 # buck6d->(c3_h1n2@imid)|ZIF8_H
       120     1     2   0.11450000     1.939609    14.822537    13.595001 # buck6d->(h1_c1S@imid)|ZIF8_H
       121     1     3  -0.15040000     0.218854     0.982942    15.904533 # buck6d->(c3_c1h1n1@imid)|ZIF8_H
       122     1     4   0.14200000    15.006676     1.805680    16.293388 # buck6d->(h1_c1@imid)|ZIF8_H
       123     1     3  -0.15040000    12.252728    13.369767    12.115175 # buck6d->(c3_c1h1n1@imid)|ZIF8_H
       124     1     4   0.14200000    11.375616    12.799966    12.173808 # buck6d->(h1_c1@imid)|ZIF8_H
       125     1     3  -0.15040000     3.010898     1.387918     9.933603 # buck6d->(c3_c1h1n1@imid)|ZIF8_H
       126     1     4   0.14200000     3.924562     1.193980     9.391713 # buck6d->(h1_c1@imid)|ZIF8_H
       127     1     5  -0.15320000    12.135666     3.645250    10.984195 # buck6d->(n3_c2zn1@imid)|ZIF8_H
       128     1     5  -0.15320000    13.706972     2.527213    12.142648 # buck6d->(n3_c2zn1@imid)|ZIF8_H
       129     1     5  -0.15320000    13.336509    12.913495    11.337280 # buck6d->(n3_c2zn1@imid)|ZIF8_H
       130     1     5  -0.15320000     9.940342     5.055042     8.390351 # buck6d->(n3_c2zn1@imid)|ZIF8_H
       131     1     5  -0.15320000     7.945673     3.450849    13.397531 # buck6d->(n3_c2zn1@imid)|ZIF8_H
       132     1     5  -0.15320000     2.221081     2.434634     9.496440 # buck6d->(n3_c2zn1@imid)|ZIF8_H
       133     1     5  -0.15320000     2.152911     2.497483     0.466848 # buck6d->(n3_c2zn1@imid)|ZIF8_H
       134     1     5  -0.15320000     0.512972     0.832135    14.501961 # buck6d->(n3_c2zn1@imid)|ZIF8_H
       135     1     6   0.52120000    10.363552     3.718728    10.005142 # buck6d->(zn4_n4@zn4tet)|ZIF8_H
       136     1     6   0.52120000    15.112633     1.185507    12.548097 # buck6d->(zn4_n4@zn4tet)|ZIF8_H
       137     1     1  -0.05190000    10.724915    12.068575     9.628271 # buck6d->(c3_h1n2@imid)|ZIF8_H
       138     1     2   0.11450000    11.141647    12.967256     9.217475 # buck6d->(h1_c1S@imid)|ZIF8_H
       139     1     3  -0.15040000     9.230263    10.720553    10.541316 # buck6d->(c3_c1h1n1@imid)|ZIF8_H
       140     1     4   0.14200000     8.215577    10.491647    10.818807 # buck6d->(h1_c1@imid)|ZIF8_H
       141     1     3  -0.15040000    10.454857    10.123948    10.644015 # buck6d->(c3_c1h1n1@imid)|ZIF8_H
       142     1     4   0.14200000    10.715507     9.103882    11.002632 # buck6d->(h1_c1@imid)|ZIF8_H
       143     1     3  -0.15040000     1.115553     0.189626    16.562397 # buck6d->(c3_c1h1n1@imid)|ZIF8_H
       144     1     4   0.14200000     1.099975     0.015712    17.707944 # buck6d->(h1_c1@imid)|ZIF8_H
       145     1     3  -0.15040000    13.861048     8.284071    11.824778 # buck6d->(c3_c1h1n1@imid)|ZIF8_H
       146     1     4   0.14200000    13.527909     7.778351    10.937178 # buck6d->(h1_c1@imid)|ZIF8_H
       147     1     1  -0.05190000    14.203904     9.861153    13.325255 # buck6d->(c3_h1n2@imid)|ZIF8_H
       148     1     2   0.11450000    14.170127    10.819910    13.975375 # buck6d->(h1_c1S@imid)|ZIF8_H
       149     1     1  -0.05190000     9.586074     0.911467     9.907974 # buck6d->(c3_h1n2@imid)|ZIF8_H
       150     1     2   0.11450000     9.267741     0.910080    10.969813 # buck6d->(h1_c1S@imid)|ZIF8_H
       151     1     3  -0.15040000     2.981902    12.124646    13.250397 # buck6d->(c3_c1h1n1@imid)|ZIF8_H
       152     1     4   0.14200000     2.278146    11.377388    13.727570 # buck6d->(h1_c1@imid)|ZIF8_H
       153     1     1  -0.05190000     8.764022     4.782542     7.771206 # buck6d->(c3_h1n2@imid)|ZIF8_H
       154     1     2   0.11450000     8.144168     3.804683     7.769362 # buck6d->(h1_c1S@imid)|ZIF8_H
       155     1     3  -0.15040000     9.307841     6.796949     7.147452 # buck6d->(c3_c1h1n1@imid)|ZIF8_H
       156     1     4   0.14200000     9.253397     7.736297     6.588230 # buck6d->(h1_c1@imid)|ZIF8_H
       157     1     3  -0.15040000     0.691726    10.268286     9.603380 # buck6d->(c3_c1h1n1@imid)|ZIF8_H
       158     1     4   0.14200000     0.517599     9.291659    10.081475 # buck6d->(h1_c1@imid)|ZIF8_H
       159     1     3  -0.15040000    10.114932    15.367538     7.979739 # buck6d->(c3_c1h1n1@imid)|ZIF8_H
       160     1     4   0.14200000    10.141922    14.609035     7.246648 # buck6d->(h1_c1@imid)|ZIF8_H
       161     1     5  -0.15320000     9.357503    11.942260     9.946694 # buck6d->(n3_c2zn1@imid)|ZIF8_H
       162     1     5  -0.15320000    11.424970    10.941911    10.038699 # buck6d->(n3_c2zn1@imid)|ZIF8_H
       163     1     5  -0.15320000    15.112325    11.172820     9.453296 # buck6d->(n3_c2zn1@imid)|ZIF8_H
       164     1     5  -0.15320000     1.927887    14.873371    15.757029 # buck6d->(n3_c2zn1@imid)|ZIF8_H
       165     1     5  -0.15320000    13.813391     9.701257    12.051011 # buck6d->(n3_c2zn1@imid)|ZIF8_H
       166     1     5  -0.15320000     9.469629    15.167900     9.234069 # buck6d->(n3_c2zn1@imid)|ZIF8_H
       167     1     5  -0.15320000     3.721902    12.963713    14.124538 # buck6d->(n3_c2zn1@imid)|ZIF8_H
       168     1     5  -0.15320000     8.319837     5.832646     7.076466 # buck6d->(n3_c2zn1@imid)|ZIF8_H
       169     1     6   0.52120000    13.439535    11.123989    10.620968 # buck6d->(zn4_n4@zn4tet)|ZIF8_H
       170     1     6   0.52120000     8.345902    13.680932    10.020999 # buck6d->(zn4_n4@zn4tet)|ZIF8_H
       171     1     1  -0.05190000    12.529418     1.440139     2.694699 # buck6d->(c3_h1n2@imid)|ZIF8_H
       172     1     2   0.11450000    12.367630     0.485078     2.322254 # buck6d->(h1_c1S@imid)|ZIF8_H
       173     1     3  -0.15040000    12.241623     3.581322     3.095539 # buck6d->(c3_c1h1n1@imid)|ZIF8_H
       174     1     4   0.14200000    11.827358     4.581055     3.008881 # buck6d->(h1_c1@imid)|ZIF8_H
       175     1     3  -0.15040000    13.511715     3.243662     3.484947 # buck6d->(c3_c1h1n1@imid)|ZIF8_H
       176     1     4   0.14200000    14.315876     3.766635     4.081967 # buck6d->(h1_c1@imid)|ZIF8_H
       177     1     3  -0.15040000     9.107957     0.281281     4.005818 # buck6d->(c3_c1h1n1@imid)|ZIF8_H
       178     1     4   0.14200000     9.608129     0.961376     4.758269 # buck6d->(h1_c1@imid)|ZIF8_H
       179     1     3  -0.15040000     7.923155     4.792247     1.716937 # buck6d->(c3_c1h1n1@imid)|ZIF8_H
       180     1     4   0.14200000     7.866861     4.839692     0.611770 # buck6d->(h1_c1@imid)|ZIF8_H
       181     1     1  -0.05190000     8.684748     4.312714     3.728143 # buck6d->(c3_h1n2@imid)|ZIF8_H
       182     1     2   0.11450000     9.297199     3.928995     4.513598 # buck6d->(h1_c1S@imid)|ZIF8_H
       183     1     1  -0.05190000     2.466154     5.790593     1.858909 # buck6d->(c3_h1n2@imid)|ZIF8_H
       184     1     2   0.11450000     1.724765     5.015453     2.187472 # buck6d->(h1_c1S@imid)|ZIF8_H
       185     1     3  -0.15040000     0.124310     6.045224     6.165818 # buck6d->(c3_c1h1n1@imid)|ZIF8_H
       186     1     4   0.14200000    14.740165     6.779234     6.039887 # buck6d->(h1_c1@imid)|ZIF8_H
       187     1     1  -0.05190000    14.643308     9.037798     3.094617 # buck6d->(c3_h1n2@imid)|ZIF8_H
       188     1     2   0.11450000    14.752504     8.582912     2.119068 # buck6d->(h1_c1S@imid)|ZIF8_H
       189     1     3  -0.15040000    15.062354     9.396408     5.242817 # buck6d->(c3_c1h1n1@imid)|ZIF8_H
       190     1     4   0.14200000     0.290725     9.345266     6.107370 # buck6d->(h1_c1@imid)|ZIF8_H
       191     1     3  -0.15040000    10.260372     2.414916    16.200092 # buck6d->(c3_c1h1n1@imid)|ZIF8_H
       192     1     4   0.14200000    10.765015     2.710523    15.256993 # buck6d->(h1_c1@imid)|ZIF8_H
       193     1     3  -0.15040000     4.108405     6.661854     0.712994 # buck6d->(c3_c1h1n1@imid)|ZIF8_H
       194     1     4   0.14200000     4.739056     6.882751    18.220333 # buck6d->(h1_c1@imid)|ZIF8_H
       195     1     5  -0.15320000    11.676521     2.438793     2.488932 # buck6d->(n3_c2zn1@imid)|ZIF8_H
       196     1     5  -0.15320000    13.719927     1.906732     3.245624 # buck6d->(n3_c2zn1@imid)|ZIF8_H
       197     1     5  -0.15320000     8.924577     2.004240    16.283247 # buck6d->(n3_c2zn1@imid)|ZIF8_H
       198     1     5  -0.15320000     8.788082     0.709363     2.725490 # buck6d->(n3_c2zn1@imid)|ZIF8_H
       199     1     5  -0.15320000     8.860108     4.060855     2.396005 # buck6d->(n3_c2zn1@imid)|ZIF8_H
       200     1     5  -0.15320000     3.274941     5.520249     0.777157 # buck6d->(n3_c2zn1@imid)|ZIF8_H
       201     1     5  -0.15320000     1.235082     6.060320     5.295549 # buck6d->(n3_c2zn1@imid)|ZIF8_H
       202     1     5  -0.15320000     0.126161     8.868968     4.056891 # buck6d->(n3_c2zn1@imid)|ZIF8_H
       203     1     6   0.52120000     9.721180     2.307703     1.930448 # buck6d->(zn4_n4@zn4tet)|ZIF8_H
       204     1     6   0.52120000     1.809901     7.684385     4.163831 # buck6d->(zn4_n4@zn4tet)|ZIF8_H
       205     1     1  -0.05190000     5.374796     3.132136    16.579728 # buck6d->(c3_h1n2@imid)|ZIF8_H
       206     1     2   0.11450000     6.035830     3.548049    17.312082 # buck6d->(h1_c1S@imid)|ZIF8_H
       207     1     3  -0.15040000     3.517855     2.851934    15.335170 # buck6d->(c3_c1h1n1@imid)|ZIF8_H
       208     1     4   0.14200000     2.498234     2.981329    15.104512 # buck6d->(h1_c1@imid)|ZIF8_H
       209     1     3  -0.15040000     4.531769     2.072019    14.819093 # buck6d->(c3_c1h1n1@imid)|ZIF8_H
       210     1     4   0.14200000     4.562461     1.323529    13.998607 # buck6d->(h1_c1@imid)|ZIF8_H
       211     1     3  -0.15040000    14.976447     4.649450    17.376061 # buck6d->(c3_c1h1n1@imid)|ZIF8_H
       212     1     4   0.14200000    14.547685     3.631232    17.606719 # buck6d->(h1_c1@imid)|ZIF8_H
       213     1     3  -0.15040000     2.522602     0.672393     1.712697 # buck6d->(c3_c1h1n1@imid)|ZIF8_H
       214     1     4   0.14200000     2.970489    15.083947     2.064676 # buck6d->(h1_c1@imid)|ZIF8_H
       215     1     1  -0.05190000     1.021009     2.155818     1.109224 # buck6d->(c3_h1n2@imid)|ZIF8_H
       216     1     2   0.11450000     0.137574     2.787236     1.058520 # buck6d->(h1_c1S@imid)|ZIF8_H
       217     1     1  -0.05190000     8.601154     1.760392    17.559150 # buck6d->(c3_h1n2@imid)|ZIF8_H
       218     1     2   0.11450000     7.572279     1.487276    17.949111 # buck6d->(h1_c1S@imid)|ZIF8_H
       219     1     3  -0.15040000     7.745944     4.414228    11.304645 # buck6d->(c3_c1h1n1@imid)|ZIF8_H
       220     1     4   0.14200000     7.412033     4.794095    10.367447 # buck6d->(h1_c1@imid)|ZIF8_H
       221     1     1  -0.05190000     7.600504     0.065776    12.488543 # buck6d->(c3_h1n2@imid)|ZIF8_H
       222     1     2   0.11450000     7.053292     0.874034    11.924527 # buck6d->(h1_c1S@imid)|ZIF8_H
       223     1     3  -0.15040000     8.479312    14.510294    14.249915 # buck6d->(c3_c1h1n1@imid)|ZIF8_H
       224     1     4   0.14200000     8.673335    14.412632    15.330561 # buck6d->(h1_c1@imid)|ZIF8_H
       225     1     3  -0.15040000     3.708793     7.559457     1.675636 # buck6d->(c3_c1h1n1@imid)|ZIF8_H
       226     1     4   0.14200000     4.028976     8.539164     2.030935 # buck6d->(h1_c1@imid)|ZIF8_H
       227     1     3  -0.15040000    10.754836     2.379179    17.542556 # buck6d->(c3_c1h1n1@imid)|ZIF8_H
       228     1     4   0.14200000    11.712302     2.706518    17.974371 # buck6d->(h1_c1@imid)|ZIF8_H
       229     1     5  -0.15320000     4.070156     3.529256    16.420609 # buck6d->(n3_c2zn1@imid)|ZIF8_H
       230     1     5  -0.15320000     5.694054     2.216818    15.617270 # buck6d->(n3_c2zn1@imid)|ZIF8_H
       231     1     5  -0.15320000     2.690406     6.987961     2.395268 # buck6d->(n3_c2zn1@imid)|ZIF8_H
       232     1     5  -0.15320000     0.927237     4.893606    17.148169 # buck6d->(n3_c2zn1@imid)|ZIF8_H
       233     1     5  -0.15320000     1.203310     1.070130     1.900026 # buck6d->(n3_c2zn1@imid)|ZIF8_H
       234     1     5  -0.15320000     9.702055     1.964652    18.365439 # buck6d->(n3_c2zn1@imid)|ZIF8_H
       235     1     5  -0.15320000     9.084977     4.034668    11.540097 # buck6d->(n3_c2zn1@imid)|ZIF8_H
       236     1     5  -0.15320000     7.851438     0.261101    13.849444 # buck6d->(n3_c2zn1@imid)|ZIF8_H
       237     1     6   0.52120000     2.726341     4.183011    17.846043 # buck6d->(zn4_n4@zn4tet)|ZIF8_H
       238     1     6   0.52120000     7.668365     2.057077    14.785721 # buck6d->(zn4_n4@zn4tet)|ZIF8_H
       239     1     1  -0.05190000     5.584859    13.099732     8.864020 # buck6d->(c3_h1n2@imid)|ZIF8_H
       240     1     2   0.11450000     5.580386    12.171167     9.452927 # buck6d->(h1_c1S@imid)|ZIF8_H
       241     1     3  -0.15040000     5.037647    14.909109     7.787800 # buck6d->(c3_c1h1n1@imid)|ZIF8_H
       242     1     4   0.14200000     4.514650     0.273733     7.214013 # buck6d->(h1_c1@imid)|ZIF8_H
       243     1     3  -0.15040000     6.370974    15.040199     8.252251 # buck6d->(c3_c1h1n1@imid)|ZIF8_H
       244     1     4   0.14200000     7.156318     0.410060     8.175734 # buck6d->(h1_c1@imid)|ZIF8_H
       245     1     3  -0.15040000     4.224079     9.024705     5.901234 # buck6d->(c3_c1h1n1@imid)|ZIF8_H
       246     1     4   0.14200000     3.584174     9.929239     6.128574 # buck6d->(h1_c1@imid)|ZIF8_H
       247     1     3  -0.15040000     2.788651    11.857537     4.644876 # buck6d->(c3_c1h1n1@imid)|ZIF8_H
       248     1     4   0.14200000     1.744198    11.490609     4.702218 # buck6d->(h1_c1@imid)|ZIF8_H
       249     1     1  -0.05190000     4.794116    12.587542     5.155237 # buck6d->(c3_h1n2@imid)|ZIF8_H
       250     1     2   0.11450000     5.624496    12.882995     5.730499 # buck6d->(h1_c1S@imid)|ZIF8_H
       251     1     1  -0.05190000     0.250625    12.250498     8.778837 # buck6d->(c3_h1n2@imid)|ZIF8_H
       252     1     2   0.11450000    15.189132    13.115906     8.282858 # buck6d->(h1_c1S@imid)|ZIF8_H
       253     1     3  -0.15040000    13.289623    14.485802     4.673639 # buck6d->(c3_c1h1n1@imid)|ZIF8_H
       254     1     4   0.14200000    13.318926    15.217347     5.421849 # buck6d->(h1_c1@imid)|ZIF8_H
       255     1     1  -0.05190000     1.709651    15.126000     5.391058 # buck6d->(c3_h1n2@imid)|ZIF8_H
       256     1     2   0.11450000     2.177742    14.504441     4.578315 # buck6d->(h1_c1S@imid)|ZIF8_H
       257     1     3  -0.15040000     0.623093     1.340165     6.419155 # buck6d->(c3_c1h1n1@imid)|ZIF8_H
       258     1     4   0.14200000    15.245426     2.060312     6.541029 # buck6d->(h1_c1@imid)|ZIF8_H
       259     1     3  -0.15040000    10.383911     1.338163     7.956323 # buck6d->(c3_c1h1n1@imid)|ZIF8_H
       260     1     4   0.14200000    10.826399     1.890557     7.132148 # buck6d->(h1_c1@imid)|ZIF8_H
       261     1     3  -0.15040000     1.805274    10.727331     8.908640 # buck6d->(c3_c1h1n1@imid)|ZIF8_H
       262     1     4   0.14200000     2.706291    10.130110     8.724630 # buck6d->(h1_c1@imid)|ZIF8_H
       263     1     5  -0.15320000     4.590994    13.670765     8.117839 # buck6d->(n3_c2zn1@imid)|ZIF8_H
       264     1     5  -0.15320000     6.704576    13.903831     8.883749 # buck6d->(n3_c2zn1@imid)|ZIF8_H
       265     1     5  -0.15320000    10.029333     1.940005     9.134136 # buck6d->(n3_c2zn1@imid)|ZIF8_H
       266     1     5  -0.15320000     3.590806     8.118167     5.019718 # buck6d->(n3_c2zn1@imid)|ZIF8_H
       267     1     5  -0.15320000     3.544691    12.378353     5.676661 # buck6d->(n3_c2zn1@imid)|ZIF8_H
       268     1     5  -0.15320000     1.532593    11.953197     8.366566 # buck6d->(n3_c2zn1@imid)|ZIF8_H
       269     1     5  -0.15320000    14.216551    14.502900     3.633557 # buck6d->(n3_c2zn1@imid)|ZIF8_H
       270     1     5  -0.15320000     0.963173     0.813804     5.124446 # buck6d->(n3_c2zn1@imid)|ZIF8_H
       271     1     6   0.52120000     2.825203    13.167510     7.373501 # buck6d->(zn4_n4@zn4tet)|ZIF8_H