LAMMPS data file for mol object with MOF-FF params from www.mofplus.org

      2176 atoms
      2552 bonds
      4568 angles
      8064 dihedrals
      1280 impropers
         6 atom types
         6 bond types
         9 angle types
        13 dihedral types
         4 improper types

    0.000000    30.846200  xlo xhi
    0.000000    30.808400  ylo yhi
    0.000000    36.875800  zlo zhi
    0.000000     0.000000     0.000000  xy xz yz

Masses

    1    12.0107 # buck6d->(c3_h1n2@imid)|ZIF8_H/gaussian->(c3_h1n2@imid)|ZIF8_H
    2     1.0079 # buck6d->(h1_c1S@imid)|ZIF8_H/gaussian->(h1_c1S@imid)|ZIF8_H
    3    12.0107 # buck6d->(c3_c1h1n1@imid)|ZIF8_H/gaussian->(c3_c1h1n1@imid)|ZIF8_H
    4     1.0079 # buck6d->(h1_c1@imid)|ZIF8_H/gaussian->(h1_c1@imid)|ZIF8_H
    5    14.0067 # buck6d->(n3_c2zn1@imid)|ZIF8_H/gaussian->(n3_c2zn1@imid)|ZIF8_H
    6    65.3800 # buck6d->(zn4_n4@zn4tet)|ZIF8_H/gaussian->(zn4_n4@zn4tet)|ZIF8_H

Atoms

         1     1     1  -0.05190000     4.517426     2.906618     7.094351 # buck6d->(c3_h1n2@imid)|ZIF8_H
         2     1     2   0.11450000     4.694175     2.640126     6.038412 # buck6d->(h1_c1S@imid)|ZIF8_H
         3     1     3  -0.15040000     3.775575     3.441914     9.064440 # buck6d->(c3_c1h1n1@imid)|ZIF8_H
         4     1     4   0.14200000     3.057475     3.683452     9.832748 # buck6d->(h1_c1@imid)|ZIF8_H
         5     1     3  -0.15040000     5.106280     3.867378     9.001014 # buck6d->(c3_c1h1n1@imid)|ZIF8_H
         6     1     4   0.14200000     5.835021     4.190250     9.750883 # buck6d->(h1_c1@imid)|ZIF8_H
         7     1     3  -0.15040000     2.211827     0.151423     4.721946 # buck6d->(c3_c1h1n1@imid)|ZIF8_H
         8     1     4   0.14200000     3.223274    15.074088     4.985977 # buck6d->(h1_c1@imid)|ZIF8_H
         9     1     3  -0.15040000    14.209148     3.421427     7.168840 # buck6d->(c3_c1h1n1@imid)|ZIF8_H
        10     1     4   0.14200000    13.490894     2.605929     7.398576 # buck6d->(h1_c1@imid)|ZIF8_H
        11     1     1  -0.05190000     0.607053     4.528219     6.808379 # buck6d->(c3_h1n2@imid)|ZIF8_H
        12     1     2   0.11450000     1.594594     4.835378     7.101357 # buck6d->(h1_c1S@imid)|ZIF8_H
        13     1     1  -0.05190000    12.497801     0.464745    13.860507 # buck6d->(c3_h1n2@imid)|ZIF8_H
        14     1     2   0.11450000    12.170831     1.101708    13.069521 # buck6d->(h1_c1S@imid)|ZIF8_H
        15     1     3  -0.15040000     7.531562     5.309674     4.571493 # buck6d->(c3_c1h1n1@imid)|ZIF8_H
        16     1     4   0.14200000     7.648007     6.138112     5.254617 # buck6d->(h1_c1@imid)|ZIF8_H
        17     1     1  -0.05190000     1.710113     9.117130     6.836958 # buck6d->(c3_h1n2@imid)|ZIF8_H
        18     1     2   0.11450000     0.801847     9.724671     6.824420 # buck6d->(h1_c1S@imid)|ZIF8_H
        19     1     3  -0.15040000     3.682882     8.464916     7.451493 # buck6d->(c3_c1h1n1@imid)|ZIF8_H
        20     1     4   0.14200000     4.667493     8.490795     7.916866 # buck6d->(h1_c1@imid)|ZIF8_H
        21     1     3  -0.15040000    14.942362    14.877530    10.140107 # buck6d->(c3_c1h1n1@imid)|ZIF8_H
        22     1     4   0.14200000    14.220252    14.252428    10.653234 # buck6d->(h1_c1@imid)|ZIF8_H
        23     1     3  -0.15040000    12.719585    14.863975    15.724763 # buck6d->(c3_c1h1n1@imid)|ZIF8_H
        24     1     4   0.14200000    12.501039    14.398922    16.695887 # buck6d->(h1_c1@imid)|ZIF8_H
        25     1     5  -0.15320000     3.382903     2.792781     7.876671 # buck6d->(n3_c2zn1@imid)|ZIF8_H
        26     1     5  -0.15320000     5.522858     3.575777     7.707042 # buck6d->(n3_c2zn1@imid)|ZIF8_H
        27     1     5  -0.15320000     0.502639    15.340273    11.021439 # buck6d->(n3_c2zn1@imid)|ZIF8_H
        28     1     5  -0.15320000     1.378054     0.917166     5.568615 # buck6d->(n3_c2zn1@imid)|ZIF8_H
        29     1     5  -0.15320000     0.144514     3.371363     7.399498 # buck6d->(n3_c2zn1@imid)|ZIF8_H
        30     1     5  -0.15320000    11.765666     0.124158    14.948159 # buck6d->(n3_c2zn1@imid)|ZIF8_H
        31     1     5  -0.15320000     7.501950     4.083807     5.124999 # buck6d->(n3_c2zn1@imid)|ZIF8_H
        32     1     5  -0.15320000     2.813019     9.564314     7.489291 # buck6d->(n3_c2zn1@imid)|ZIF8_H
        33     1     6   0.52120000     1.724457     1.683987     7.346766 # buck6d->(zn4_n4@zn4tet)|ZIF8_H
        34     1     6   0.52120000     7.356819     3.374752     6.883052 # buck6d->(zn4_n4@zn4tet)|ZIF8_H
        35     1     1  -0.05190000     2.329351    11.455487    14.767467 # buck6d->(c3_h1n2@imid)|ZIF8_H
        36     1     2   0.11450000     1.645336    12.295016    14.567969 # buck6d->(h1_c1S@imid)|ZIF8_H
        37     1     3  -0.15040000     4.148197    10.385204    15.228230 # buck6d->(c3_c1h1n1@imid)|ZIF8_H
        38     1     4   0.14200000     5.248327    10.219300    15.261603 # buck6d->(h1_c1@imid)|ZIF8_H
        39     1     3  -0.15040000     3.131815     9.453249    15.205736 # buck6d->(c3_c1h1n1@imid)|ZIF8_H
        40     1     4   0.14200000     3.186258     8.451668    15.683831 # buck6d->(h1_c1@imid)|ZIF8_H
        41     1     3  -0.15040000     9.656866     0.703972    10.778059 # buck6d->(c3_c1h1n1@imid)|ZIF8_H
        42     1     4   0.14200000     9.969800     0.901762     9.704789 # buck6d->(h1_c1@imid)|ZIF8_H
        43     1     3  -0.15040000     8.604085    12.953392    15.266028 # buck6d->(c3_c1h1n1@imid)|ZIF8_H
        44     1     4   0.14200000     9.578670    12.419174    15.206105 # buck6d->(h1_c1@imid)|ZIF8_H
        45     1     1  -0.05190000     7.188553    14.613810    15.847006 # buck6d->(c3_h1n2@imid)|ZIF8_H
        46     1     2   0.11450000     6.803746     0.103824    16.140353 # buck6d->(h1_c1S@imid)|ZIF8_H
        47     1     1  -0.05190000    13.402211     9.856531    17.513608 # buck6d->(c3_h1n2@imid)|ZIF8_H
        48     1     2   0.11450000    12.481298     9.511785    16.965449 # buck6d->(h1_c1S@imid)|ZIF8_H
        49     1     3  -0.15040000    13.900377    11.589350    13.967262 # buck6d->(c3_c1h1n1@imid)|ZIF8_H
        50     1     4   0.14200000    13.876626    12.120795    14.939493 # buck6d->(h1_c1@imid)|ZIF8_H
        51     1     1  -0.05190000     1.132210     6.861185    16.723360 # buck6d->(c3_h1n2@imid)|ZIF8_H
        52     1     2   0.11450000     1.200380     7.445620    17.655027 # buck6d->(h1_c1S@imid)|ZIF8_H
        53     1     3  -0.15040000     0.944202     6.418468    14.579401 # buck6d->(c3_c1h1n1@imid)|ZIF8_H
        54     1     4   0.14200000     0.514206     6.519366    13.549828 # buck6d->(h1_c1@imid)|ZIF8_H
        55     1     3  -0.15040000     3.330927    12.977730     0.227892 # buck6d->(c3_c1h1n1@imid)|ZIF8_H
        56     1     4   0.14200000     2.254086    13.002685    18.319344 # buck6d->(h1_c1@imid)|ZIF8_H
        57     1     3  -0.15040000     0.091459    10.417552    18.041485 # buck6d->(c3_c1h1n1@imid)|ZIF8_H
        58     1     4   0.14200000     1.157658    10.670181    17.733757 # buck6d->(h1_c1@imid)|ZIF8_H
        59     1     5  -0.15320000     3.662061    11.685934    14.991856 # buck6d->(n3_c2zn1@imid)|ZIF8_H
        60     1     5  -0.15320000     1.967988    10.158916    14.931011 # buck6d->(n3_c2zn1@imid)|ZIF8_H
        61     1     5  -0.15320000     4.420415    13.118833    17.775426 # buck6d->(n3_c2zn1@imid)|ZIF8_H
        62     1     5  -0.15320000     8.675185    15.123227    11.048174 # buck6d->(n3_c2zn1@imid)|ZIF8_H
        63     1     5  -0.15320000     8.545169    14.334686    15.624461 # buck6d->(n3_c2zn1@imid)|ZIF8_H
        64     1     5  -0.15320000    14.704229     9.907981    17.021316 # buck6d->(n3_c2zn1@imid)|ZIF8_H
        65     1     5  -0.15320000    14.388981    10.302175    13.825844 # buck6d->(n3_c2zn1@imid)|ZIF8_H
        66     1     5  -0.15320000     0.646999     7.379382    15.593301 # buck6d->(n3_c2zn1@imid)|ZIF8_H
        67     1     6   0.52120000     4.340523    13.349896    15.703744 # buck6d->(zn4_n4@zn4tet)|ZIF8_H
        68     1     6   0.52120000     0.123847     9.256846    15.230443 # buck6d->(zn4_n4@zn4tet)|ZIF8_H
        69     1     1  -0.05190000     9.272676    11.164348     1.884722 # buck6d->(c3_h1n2@imid)|ZIF8_H
        70     1     2   0.11450000     9.480425    11.987702     1.269818 # buck6d->(h1_c1S@imid)|ZIF8_H
        71     1     3  -0.15040000     9.573272     9.238053     2.856953 # buck6d->(c3_c1h1n1@imid)|ZIF8_H
        72     1     4   0.14200000    10.188808     8.386355     3.156200 # buck6d->(h1_c1@imid)|ZIF8_H
        73     1     3  -0.15040000     8.294697     9.698176     3.204507 # buck6d->(c3_c1h1n1@imid)|ZIF8_H
        74     1     4   0.14200000     7.570583     9.248220     3.847252 # buck6d->(h1_c1@imid)|ZIF8_H
        75     1     3  -0.15040000    12.483611     9.246833     4.598781 # buck6d->(c3_c1h1n1@imid)|ZIF8_H
        76     1     4   0.14200000    11.597863     9.796609     5.004046 # buck6d->(h1_c1@imid)|ZIF8_H
        77     1     3  -0.15040000    12.234374    12.702303     3.853890 # buck6d->(c3_c1h1n1@imid)|ZIF8_H
        78     1     4   0.14200000    11.896917    11.996175     4.587534 # buck6d->(h1_c1@imid)|ZIF8_H
        79     1     1  -0.05190000    12.898955    13.394106     1.878453 # buck6d->(c3_h1n2@imid)|ZIF8_H
        80     1     2   0.11450000    13.112720    13.461730     0.785270 # buck6d->(h1_c1S@imid)|ZIF8_H
        81     1     1  -0.05190000     5.500340    12.729723     0.014013 # buck6d->(c3_h1n2@imid)|ZIF8_H
        82     1     2   0.11450000     6.512250    12.927051    18.182166 # buck6d->(h1_c1S@imid)|ZIF8_H
        83     1     3  -0.15040000     5.758677    13.510870     5.254248 # buck6d->(c3_c1h1n1@imid)|ZIF8_H
        84     1     4   0.14200000     6.578415    14.158000     5.106561 # buck6d->(h1_c1@imid)|ZIF8_H
        85     1     1  -0.05190000     6.942092    15.185460     2.021716 # buck6d->(c3_h1n2@imid)|ZIF8_H
        86     1     2   0.11450000     5.804638    15.281120     1.951283 # buck6d->(h1_c1S@imid)|ZIF8_H
        87     1     3  -0.15040000     8.918870    14.466700     2.499073 # buck6d->(c3_c1h1n1@imid)|ZIF8_H
        88     1     4   0.14200000     9.776703    13.817875     2.693408 # buck6d->(h1_c1@imid)|ZIF8_H
        89     1     3  -0.15040000    14.689115    10.691131     0.686812 # buck6d->(c3_c1h1n1@imid)|ZIF8_H
        90     1     4   0.14200000    15.008681    11.241061     1.593035 # buck6d->(h1_c1@imid)|ZIF8_H
        91     1     3  -0.15040000     3.905437    12.574603     1.449772 # buck6d->(c3_c1h1n1@imid)|ZIF8_H
        92     1     4   0.14200000     3.472819    12.385901     2.450581 # buck6d->(h1_c1@imid)|ZIF8_H
        93     1     5  -0.15320000    10.184181    10.141201     1.969905 # buck6d->(n3_c2zn1@imid)|ZIF8_H
        94     1     5  -0.15320000     8.106227    10.882759     2.576697 # buck6d->(n3_c2zn1@imid)|ZIF8_H
        95     1     5  -0.15320000    13.348230    10.294011     0.342207 # buck6d->(n3_c2zn1@imid)|ZIF8_H
        96     1     5  -0.15320000    13.059664     9.345728     3.308681 # buck6d->(n3_c2zn1@imid)|ZIF8_H
        97     1     5  -0.15320000    12.186408    12.376659     2.519908 # buck6d->(n3_c2zn1@imid)|ZIF8_H
        98     1     5  -0.15320000     5.228431    12.418712     1.287150 # buck6d->(n3_c2zn1@imid)|ZIF8_H
        99     1     5  -0.15320000     5.678785    12.284387     4.536645 # buck6d->(n3_c2zn1@imid)|ZIF8_H
       100     1     5  -0.15320000     7.559787    14.058951     2.487273 # buck6d->(n3_c2zn1@imid)|ZIF8_H
       101     1     6   0.52120000    12.166050    10.443740     1.929342 # buck6d->(zn4_n4@zn4tet)|ZIF8_H
       102     1     6   0.52120000     6.597694    12.226159     2.740425 # buck6d->(zn4_n4@zn4tet)|ZIF8_H
       103     1     1  -0.05190000    12.682107     7.674372     9.257485 # buck6d->(c3_h1n2@imid)|ZIF8_H
       104     1     2   0.11450000    11.609122     7.475504     9.326443 # buck6d->(h1_c1S@imid)|ZIF8_H
       105     1     3  -0.15040000    14.839953     7.144468     8.973542 # buck6d->(c3_c1h1n1@imid)|ZIF8_H
       106     1     4   0.14200000     0.221476     6.406607     8.737905 # buck6d->(h1_c1@imid)|ZIF8_H
       107     1     3  -0.15040000    14.688498     8.497111     9.262832 # buck6d->(c3_c1h1n1@imid)|ZIF8_H
       108     1     4   0.14200000    15.389786     9.325087     9.107216 # buck6d->(h1_c1@imid)|ZIF8_H
       109     1     3  -0.15040000    10.142231     5.229880     9.612415 # buck6d->(c3_c1h1n1@imid)|ZIF8_H
       110     1     4   0.14200000    10.515007     5.752853    10.525275 # buck6d->(h1_c1@imid)|ZIF8_H
       111     1     3  -0.15040000    14.646701     3.764941    12.506059 # buck6d->(c3_c1h1n1@imid)|ZIF8_H
       112     1     4   0.14200000    14.999427     4.130944    13.480686 # buck6d->(h1_c1@imid)|ZIF8_H
       113     1     1  -0.05190000    13.970707     2.580974    10.801291 # buck6d->(c3_h1n2@imid)|ZIF8_H
       114     1     2   0.11450000    13.906547     1.767016    10.048656 # buck6d->(h1_c1S@imid)|ZIF8_H
       115     1     1  -0.05190000     1.366949     0.608312    10.240410 # buck6d->(c3_h1n2@imid)|ZIF8_H
       116     1     2   0.11450000     2.264420     1.087537    10.740999 # buck6d->(h1_c1S@imid)|ZIF8_H
       117     1     3  -0.15040000    14.384817     3.211005    17.723800 # buck6d->(c3_c1h1n1@imid)|ZIF8_H
       118     1     4   0.14200000    14.259890     3.793592    16.796927 # buck6d->(h1_c1@imid)|ZIF8_H
       119     1     1  -0.05190000     2.224319    14.834553    13.961178 # buck6d->(c3_h1n2@imid)|ZIF8_H
       120     1     2   0.11450000     2.287400    14.048322    13.187339 # buck6d->(h1_c1S@imid)|ZIF8_H
       121     1     3  -0.15040000     1.658292     1.187202    15.108568 # buck6d->(c3_c1h1n1@imid)|ZIF8_H
       122     1     4   0.14200000     1.038746     2.057385    15.372968 # buck6d->(h1_c1@imid)|ZIF8_H
       123     1     3  -0.15040000    13.954050    14.895091    15.179739 # buck6d->(c3_c1h1n1@imid)|ZIF8_H
       124     1     4   0.14200000    14.901953    14.645235    15.676456 # buck6d->(h1_c1@imid)|ZIF8_H
       125     1     3  -0.15040000    15.333183    15.255395     8.866417 # buck6d->(c3_c1h1n1@imid)|ZIF8_H
       126     1     4   0.14200000    14.881749    14.942690     7.917603 # buck6d->(h1_c1@imid)|ZIF8_H
       127     1     5  -0.15320000    13.515263     6.640134     8.980364 # buck6d->(n3_c2zn1@imid)|ZIF8_H
       128     1     5  -0.15320000    13.318618     8.847402     9.400932 # buck6d->(n3_c2zn1@imid)|ZIF8_H
       129     1     5  -0.15320000    13.793495     0.101822    13.976113 # buck6d->(n3_c2zn1@imid)|ZIF8_H
       130     1     5  -0.15320000    10.944078     4.558873     8.618243 # buck6d->(n3_c2zn1@imid)|ZIF8_H
       131     1     5  -0.15320000    14.464400     2.452349    12.069634 # buck6d->(n3_c2zn1@imid)|ZIF8_H
       132     1     5  -0.15320000     1.174006     0.505258     8.865864 # buck6d->(n3_c2zn1@imid)|ZIF8_H
       133     1     5  -0.15320000     0.169808     3.296037    18.358064 # buck6d->(n3_c2zn1@imid)|ZIF8_H
       134     1     5  -0.15320000     1.515011     0.581817    13.880973 # buck6d->(n3_c2zn1@imid)|ZIF8_H
       135     1     6   0.52120000    12.956946     4.722928     8.785844 # buck6d->(zn4_n4@zn4tet)|ZIF8_H
       136     1     6   0.52120000    15.297556     0.717066    12.726207 # buck6d->(zn4_n4@zn4tet)|ZIF8_H
       137     1     1  -0.05190000    10.426478    12.398070    10.136604 # buck6d->(c3_h1n2@imid)|ZIF8_H
       138     1     2   0.11450000    10.811747    13.251001    10.705782 # buck6d->(h1_c1S@imid)|ZIF8_H
       139     1     3  -0.15040000    10.215028    10.561890     9.027565 # buck6d->(c3_c1h1n1@imid)|ZIF8_H
       140     1     4   0.14200000    10.503902     9.579410     8.657516 # buck6d->(h1_c1@imid)|ZIF8_H
       141     1     3  -0.15040000     8.960821    11.192846     9.096338 # buck6d->(c3_c1h1n1@imid)|ZIF8_H
       142     1     4   0.14200000     7.976365    10.814827     8.777362 # buck6d->(h1_c1@imid)|ZIF8_H
       143     1     3  -0.15040000     2.544503     0.506490    15.906561 # buck6d->(c3_c1h1n1@imid)|ZIF8_H
       144     1     4   0.14200000     2.830293     0.795935    16.981306 # buck6d->(h1_c1@imid)|ZIF8_H
       145     1     3  -0.15040000    13.439227    11.995559    12.733767 # buck6d->(c3_c1h1n1@imid)|ZIF8_H
       146     1     4   0.14200000    12.978384    12.886229    12.293654 # buck6d->(h1_c1@imid)|ZIF8_H
       147     1     1  -0.05190000    14.199740     9.969906    12.528922 # buck6d->(c3_h1n2@imid)|ZIF8_H
       148     1     2   0.11450000    14.562183     9.014846    12.074428 # buck6d->(h1_c1S@imid)|ZIF8_H
       149     1     1  -0.05190000     7.292504     0.625411     7.950422 # buck6d->(c3_h1n2@imid)|ZIF8_H
       150     1     2   0.11450000     6.331183     0.900067     8.512225 # buck6d->(h1_c1S@imid)|ZIF8_H
       151     1     3  -0.15040000     7.292813    12.486028    15.226018 # buck6d->(c3_c1h1n1@imid)|ZIF8_H
       152     1     4   0.14200000     6.887031    11.504627    15.061736 # buck6d->(h1_c1@imid)|ZIF8_H
       153     1     1  -0.05190000    10.117708     4.069328     7.676620 # buck6d->(c3_h1n2@imid)|ZIF8_H
       154     1     2   0.11450000    10.556187     3.567459     6.798791 # buck6d->(h1_c1S@imid)|ZIF8_H
       155     1     3  -0.15040000     8.849466     4.962771     9.194612 # buck6d->(c3_c1h1n1@imid)|ZIF8_H
       156     1     4   0.14200000     7.943822     5.330007     9.618131 # buck6d->(h1_c1@imid)|ZIF8_H
       157     1     3  -0.15040000    14.365846    12.078125     7.443196 # buck6d->(c3_c1h1n1@imid)|ZIF8_H
       158     1     4   0.14200000    13.442928    12.348007     6.942607 # buck6d->(h1_c1@imid)|ZIF8_H
       159     1     3  -0.15040000     8.777286    14.826234     6.980220 # buck6d->(c3_c1h1n1@imid)|ZIF8_H
       160     1     4   0.14200000     9.362130    13.910301     6.737762 # buck6d->(h1_c1@imid)|ZIF8_H
       161     1     5  -0.15320000    11.140105    11.357363     9.643022 # buck6d->(n3_c2zn1@imid)|ZIF8_H
       162     1     5  -0.15320000     9.096390    12.310729     9.823529 # buck6d->(n3_c2zn1@imid)|ZIF8_H
       163     1     5  -0.15320000    14.348418    11.706422     8.740855 # buck6d->(n3_c2zn1@imid)|ZIF8_H
       164     1     5  -0.15320000     2.942573    14.791421    15.158535 # buck6d->(n3_c2zn1@imid)|ZIF8_H
       165     1     5  -0.15320000    13.602557    10.989818    11.795278 # buck6d->(n3_c2zn1@imid)|ZIF8_H
       166     1     5  -0.15320000     7.917757    14.843487     8.060866 # buck6d->(n3_c2zn1@imid)|ZIF8_H
       167     1     5  -0.15320000     6.425418    13.543373    15.521762 # buck6d->(n3_c2zn1@imid)|ZIF8_H
       168     1     5  -0.15320000     8.805510     4.305012     8.005736 # buck6d->(n3_c2zn1@imid)|ZIF8_H
       169     1     6   0.52120000    13.063057    10.898626     9.957572 # buck6d->(zn4_n4@zn4tet)|ZIF8_H
       170     1     6   0.52120000     7.880124    13.797388     9.854504 # buck6d->(zn4_n4@zn4tet)|ZIF8_H
       171     1     1  -0.05190000    11.701352     1.838491     4.286074 # buck6d->(c3_h1n2@imid)|ZIF8_H
       172     1     2   0.11450000    11.919743     0.929335     4.926423 # buck6d->(h1_c1S@imid)|ZIF8_H
       173     1     3  -0.15040000    11.303282     3.904349     3.777557 # buck6d->(c3_c1h1n1@imid)|ZIF8_H
       174     1     4   0.14200000    10.802648     4.927958     3.880440 # buck6d->(h1_c1@imid)|ZIF8_H
       175     1     3  -0.15040000    12.318584     3.390927     2.871150 # buck6d->(c3_c1h1n1@imid)|ZIF8_H
       176     1     4   0.14200000    12.993036     3.872154     2.102842 # buck6d->(h1_c1@imid)|ZIF8_H
       177     1     3  -0.15040000     9.078962     0.383873     2.171616 # buck6d->(c3_c1h1n1@imid)|ZIF8_H
       178     1     4   0.14200000     9.982601     0.979245     2.079058 # buck6d->(h1_c1@imid)|ZIF8_H
       179     1     3  -0.15040000     7.500254     5.221408     3.209485 # buck6d->(c3_c1h1n1@imid)|ZIF8_H
       180     1     4   0.14200000     7.520458     6.025507     2.470494 # buck6d->(h1_c1@imid)|ZIF8_H
       181     1     1  -0.05190000     7.598190     3.236422     4.045828 # buck6d->(c3_h1n2@imid)|ZIF8_H
       182     1     2   0.11450000     7.803009     2.126858     4.114602 # buck6d->(h1_c1S@imid)|ZIF8_H
       183     1     1  -0.05190000     1.097816     5.586795     2.524886 # buck6d->(c3_h1n2@imid)|ZIF8_H
       184     1     2   0.11450000     0.055215     5.292729     2.415918 # buck6d->(h1_c1S@imid)|ZIF8_H
       185     1     3  -0.15040000    13.935388     4.599694     6.416389 # buck6d->(c3_c1h1n1@imid)|ZIF8_H
       186     1     4   0.14200000    12.955867     4.766368     5.972958 # buck6d->(h1_c1@imid)|ZIF8_H
       187     1     1  -0.05190000    14.211615     8.609253     3.350720 # buck6d->(c3_h1n2@imid)|ZIF8_H
       188     1     2   0.11450000    14.844117     8.376496     2.474551 # buck6d->(h1_c1S@imid)|ZIF8_H
       189     1     3  -0.15040000    13.391261     8.542707     5.385157 # buck6d->(c3_c1h1n1@imid)|ZIF8_H
       190     1     4   0.14200000    13.360106     8.174393     6.396661 # buck6d->(h1_c1@imid)|ZIF8_H
       191     1     3  -0.15040000     9.171346     3.408487    15.980497 # buck6d->(c3_c1h1n1@imid)|ZIF8_H
       192     1     4   0.14200000     9.557541     3.819471    15.079068 # buck6d->(h1_c1@imid)|ZIF8_H
       193     1     3  -0.15040000     3.106521     6.052464     2.007519 # buck6d->(c3_c1h1n1@imid)|ZIF8_H
       194     1     4   0.14200000     4.105321     5.911670     1.470238 # buck6d->(h1_c1@imid)|ZIF8_H
       195     1     5  -0.15320000    10.912769     2.875348     4.649854 # buck6d->(n3_c2zn1@imid)|ZIF8_H
       196     1     5  -0.15320000    12.624116     2.114843     3.234930 # buck6d->(n3_c2zn1@imid)|ZIF8_H
       197     1     5  -0.15320000     9.354727     2.026731    16.244896 # buck6d->(n3_c2zn1@imid)|ZIF8_H
       198     1     5  -0.15320000     7.848816     0.870337     1.886013 # buck6d->(n3_c2zn1@imid)|ZIF8_H
       199     1     5  -0.15320000     7.542513     3.912205     2.865618 # buck6d->(n3_c2zn1@imid)|ZIF8_H
       200     1     5  -0.15320000     1.938375     5.433678     1.511170 # buck6d->(n3_c2zn1@imid)|ZIF8_H
       201     1     5  -0.15320000    15.108315     5.313217     6.151437 # buck6d->(n3_c2zn1@imid)|ZIF8_H
       202     1     5  -0.15320000    14.475659     8.126332     4.593434 # buck6d->(n3_c2zn1@imid)|ZIF8_H
       203     1     6   0.52120000     7.437173     2.789393     1.318679 # buck6d->(zn4_n4@zn4tet)|ZIF8_H
       204     1     6   0.52120000     0.509425     6.856563     5.118177 # buck6d->(zn4_n4@zn4tet)|ZIF8_H
       205     1     1  -0.05190000     4.440156     3.326383     0.622095 # buck6d->(c3_h1n2@imid)|ZIF8_H
       206     1     2   0.11450000     4.261557     3.538653     1.679324 # buck6d->(h1_c1S@imid)|ZIF8_H
       207     1     3  -0.15040000     4.417639     3.316832    16.881004 # buck6d->(c3_c1h1n1@imid)|ZIF8_H
       208     1     4   0.14200000     3.951398     3.373828    15.887017 # buck6d->(h1_c1@imid)|ZIF8_H
       209     1     3  -0.15040000     5.733383     3.229953    17.261746 # buck6d->(c3_c1h1n1@imid)|ZIF8_H
       210     1     4   0.14200000     6.637485     3.191904    16.612732 # buck6d->(h1_c1@imid)|ZIF8_H
       211     1     3  -0.15040000     1.576395     5.364975    15.179186 # buck6d->(c3_c1h1n1@imid)|ZIF8_H
       212     1     4   0.14200000     1.885320     4.337515    14.852282 # buck6d->(h1_c1@imid)|ZIF8_H
       213     1     3  -0.15040000    13.566621     2.287986    18.314550 # buck6d->(c3_c1h1n1@imid)|ZIF8_H
       214     1     4   0.14200000    12.578772     1.861906    18.052179 # buck6d->(h1_c1@imid)|ZIF8_H
       215     1     1  -0.05190000     0.123076     2.392272     0.978684 # buck6d->(c3_h1n2@imid)|ZIF8_H
       216     1     2   0.11450000     0.871097     2.248859     1.770592 # buck6d->(h1_c1S@imid)|ZIF8_H
       217     1     1  -0.05190000     9.140500     1.849890    17.575191 # buck6d->(c3_h1n2@imid)|ZIF8_H
       218     1     2   0.11450000     9.178750     0.784228    17.919057 # buck6d->(h1_c1S@imid)|ZIF8_H
       219     1     3  -0.15040000    14.170282     4.641902    11.434817 # buck6d->(c3_c1h1n1@imid)|ZIF8_H
       220     1     4   0.14200000    14.028852     5.718963    11.473536 # buck6d->(h1_c1@imid)|ZIF8_H
       221     1     1  -0.05190000     8.470829    15.095038    12.371647 # buck6d->(c3_h1n2@imid)|ZIF8_H
       222     1     2   0.11450000     7.735456    14.362568    12.915011 # buck6d->(h1_c1S@imid)|ZIF8_H
       223     1     3  -0.15040000     9.995557     1.349408    12.051196 # buck6d->(c3_c1h1n1@imid)|ZIF8_H
       224     1     4   0.14200000    10.724298     2.121929    12.277613 # buck6d->(h1_c1@imid)|ZIF8_H
       225     1     3  -0.15040000     2.938255     6.425862     3.337444 # buck6d->(c3_c1h1n1@imid)|ZIF8_H
       226     1     4   0.14200000     3.661290     6.944521     3.897403 # buck6d->(h1_c1@imid)|ZIF8_H
       227     1     3  -0.15040000     8.987195     3.979367    17.301203 # buck6d->(c3_c1h1n1@imid)|ZIF8_H
       228     1     4   0.14200000     9.037937     4.997122    17.709603 # buck6d->(h1_c1@imid)|ZIF8_H
       229     1     5  -0.15320000     3.574920     3.340709    18.062504 # buck6d->(n3_c2zn1@imid)|ZIF8_H
       230     1     5  -0.15320000     5.773329     3.285254     0.222361 # buck6d->(n3_c2zn1@imid)|ZIF8_H
       231     1     5  -0.15320000     1.631147     6.140114     3.682786 # buck6d->(n3_c2zn1@imid)|ZIF8_H
       232     1     5  -0.15320000     1.681735     5.607437    16.524415 # buck6d->(n3_c2zn1@imid)|ZIF8_H
       233     1     5  -0.15320000    14.335000     1.733589     0.920236 # buck6d->(n3_c2zn1@imid)|ZIF8_H
       234     1     5  -0.15320000     8.953881     3.017067    18.296850 # buck6d->(n3_c2zn1@imid)|ZIF8_H
       235     1     5  -0.15320000    13.811386     3.883861    10.339974 # buck6d->(n3_c2zn1@imid)|ZIF8_H
       236     1     5  -0.15320000     9.309075     0.673009    13.004066 # buck6d->(n3_c2zn1@imid)|ZIF8_H
       237     1     6   0.52120000     1.872519     4.397283    18.167232 # buck6d->(zn4_n4@zn4tet)|ZIF8_H
       238     1     6   0.52120000     9.721334     0.447954    15.032235 # buck6d->(zn4_n4@zn4tet)|ZIF8_H
       239     1     1  -0.05190000     5.517151    12.318123     9.158658 # buck6d->(c3_h1n2@imid)|ZIF8_H
       240     1     2   0.11450000     6.077781    11.898512     8.309777 # buck6d->(h1_c1S@imid)|ZIF8_H
       241     1     3  -0.15040000     3.778968    12.749902    10.447467 # buck6d->(c3_c1h1n1@imid)|ZIF8_H
       242     1     4   0.14200000     2.785258    12.505900    10.870801 # buck6d->(h1_c1@imid)|ZIF8_H
       243     1     3  -0.15040000     4.869073    13.408124    11.028077 # buck6d->(c3_c1h1n1@imid)|ZIF8_H
       244     1     4   0.14200000     5.026851    14.032302    11.928215 # buck6d->(h1_c1@imid)|ZIF8_H
       245     1     3  -0.15040000     3.015987     7.389549     6.829583 # buck6d->(c3_c1h1n1@imid)|ZIF8_H
       246     1     4   0.14200000     3.358843     6.354078     6.727437 # buck6d->(h1_c1@imid)|ZIF8_H
       247     1     3  -0.15040000     4.824191    13.385788     6.317562 # buck6d->(c3_c1h1n1@imid)|ZIF8_H
       248     1     4   0.14200000     4.536396    14.131813     7.095826 # buck6d->(h1_c1@imid)|ZIF8_H
       249     1     1  -0.05190000     4.641736    11.562238     5.114489 # buck6d->(c3_h1n2@imid)|ZIF8_H
       250     1     2   0.11450000     4.222999    10.577602     4.770069 # buck6d->(h1_c1S@imid)|ZIF8_H
       251     1     1  -0.05190000     0.256795    11.687167     9.137270 # buck6d->(c3_h1n2@imid)|ZIF8_H
       252     1     2   0.11450000     0.603814    11.286195    10.106366 # buck6d->(h1_c1S@imid)|ZIF8_H
       253     1     3  -0.15040000    12.863020    13.981930     4.012640 # buck6d->(c3_c1h1n1@imid)|ZIF8_H
       254     1     4   0.14200000    13.084033    14.504903     4.910382 # buck6d->(h1_c1@imid)|ZIF8_H
       255     1     1  -0.05190000     0.276536     1.220629     4.844189 # buck6d->(c3_h1n2@imid)|ZIF8_H
       256     1     2   0.11450000    14.923854     1.947707     5.155237 # buck6d->(h1_c1S@imid)|ZIF8_H
       257     1     3  -0.15040000     1.598142     0.144183     3.469644 # buck6d->(c3_c1h1n1@imid)|ZIF8_H
       258     1     4   0.14200000     1.905370    15.055295     2.542586 # buck6d->(h1_c1@imid)|ZIF8_H
       259     1     3  -0.15040000     8.727470     0.619403     6.320512 # buck6d->(c3_c1h1n1@imid)|ZIF8_H
       260     1     4   0.14200000     9.352722     0.897449     5.488778 # buck6d->(h1_c1@imid)|ZIF8_H
       261     1     3  -0.15040000     0.252785    12.239715     6.968789 # buck6d->(c3_c1h1n1@imid)|ZIF8_H
       262     1     4   0.14200000     0.629879    12.642073     6.048369 # buck6d->(h1_c1@imid)|ZIF8_H
       263     1     5  -0.15320000     4.208964    12.083054     9.277583 # buck6d->(n3_c2zn1@imid)|ZIF8_H
       264     1     5  -0.15320000     5.986322    13.093262    10.189337 # buck6d->(n3_c2zn1@imid)|ZIF8_H
       265     1     5  -0.15320000     7.703376     1.349100     6.883421 # buck6d->(n3_c2zn1@imid)|ZIF8_H
       266     1     5  -0.15320000     1.776741     7.858453     6.340056 # buck6d->(n3_c2zn1@imid)|ZIF8_H
       267     1     5  -0.15320000     4.039773    12.222000     6.156230 # buck6d->(n3_c2zn1@imid)|ZIF8_H
       268     1     5  -0.15320000     1.048308    11.985238     8.061787 # buck6d->(n3_c2zn1@imid)|ZIF8_H
       269     1     5  -0.15320000    13.219139    14.367651     2.755544 # buck6d->(n3_c2zn1@imid)|ZIF8_H
       270     1     5  -0.15320000     0.382184     0.813804     3.571421 # buck6d->(n3_c2zn1@imid)|ZIF8_H
       271     1     6   0.52120000     3.027863    11.507245     7.742074 # buck6d->(zn4_n4@zn4tet)|ZIF8_H