Created on Mon Oct 30 09:45:34 2017 

        1968 atoms
        2328 bonds
        4128 angles
        6912 dihedrals
        3456 impropers

           6 atom types
           7 bond types
          10 angle types
           9 dihedral types
           3 improper types
           0.000000  52.630000 xlo xhi
           0.000000  52.630000 ylo yhi
           0.000000  52.630000 zlo zhi
           0.000000   0.000000   0.000000 xy xz yz

Masses

    1    12.010700000 # 168
    2    12.010700000 # 2
    3    63.546000000 # 165
    4     1.007940000 # 5
    5    14.006700000 # 40
    6    15.999400000 # 167

Bond Coeffs

    1                       class2        1.485000      360.635220     -919.619811     1367.934469 # 168 2
    2                       class2        1.278000      585.591600    -1493.258580     2221.222138 # 168 167
    3                       class2        1.394000      509.335200    -1298.804760     1931.972080 # 2 2
    4                       class2        1.094000      390.634200     -996.117210     1481.724350 # 2 5
    5                       class2        1.266000      797.814600    -2034.427230     3026.210505 # 2 40
    6                        morse       50.000000        1.451345        1.914000 # 165 167
    7                       class2        2.536000       75.465060     -192.435903      286.248406 # 165 165

Angle Coeffs

    1                       class2      115.098000       79.493057      -63.764634       14.613778 # 2 168 167
    2                       class2      123.490000      111.074462      -89.097370       20.419613 # 167 168 167
    3                       class2      120.350000       36.185527      -29.025892        6.652244 # 2 2 5
    4                       class2      127.050000       53.307109      -42.759813        9.799827 # 2 2 2
    5                       class2      117.711000       57.407656      -46.049029       10.553660 # 168 2 2
    6                       class2      119.000000       47.480016      -38.085663        8.728591 # 40 2 2
    7                       class2       84.336000       29.351283      -23.543865        5.395856 # 167 165 165
    8              cosine/periodic      100.000000               1               4 # 167 165 167
    9                       class2      124.000000       30.933950      -24.813387        5.686809 # 2 40 2
   10                       class2      126.814000       13.740429      -11.021760        2.526001 # 168 167 165

BondBond Coeffs

    1 class2        0.000000        1.485000        1.278000 # 2 168 167
    2 class2        0.000000        1.278000        1.278000 # 167 168 167
    3 class2        0.000000        1.394000        1.094000 # 2 2 5
    4 class2        0.000000        1.394000        1.394000 # 2 2 2
    5 class2        0.000000        1.394000        1.485000 # 168 2 2
    6 class2        0.000000        1.394000        1.266000 # 40 2 2
    7 class2        0.000000        2.536000        1.914000 # 167 165 165
    8 skip # 167 165 167
    9 class2        0.000000        1.266000        1.266000 # 2 40 2
   10 class2        0.000000        1.914000        1.278000 # 168 167 165

BondAngle Coeffs

    1 class2        0.000000        0.000000        1.485000        1.278000 # 2 168 167
    2 class2        0.000000        0.000000        1.278000        1.278000 # 167 168 167
    3 class2        0.000000        0.000000        1.394000        1.094000 # 2 2 5
    4 class2        0.000000        0.000000        1.394000        1.394000 # 2 2 2
    5 class2        0.000000        0.000000        1.394000        1.485000 # 168 2 2
    6 class2        0.000000        0.000000        1.394000        1.266000 # 40 2 2
    7 class2        0.000000        0.000000        2.536000        1.914000 # 167 165 165
    8 skip  # 167 165 167
    9 class2        0.000000        0.000000        1.266000        1.266000 # 2 40 2
   10 class2        0.000000        0.000000        1.914000        1.278000 # 168 167 165

Dihedral Coeffs

    1     4       0.000000     1     0       0.870500     2  -180       0.000000     3     0       0.000000     4  -180 # 167 168 2 2
    2     4       0.000000     1     0       0.000000     2  -180       0.000000     3     0       0.000000     4  -180 # 2 168 167 165
    3     4       0.000000     1     0       2.264000     2  -180       0.000000     3     0       0.000000     4  -180 # 167 168 167 165
    4     4       0.000000     1     0       2.189500     2  -180       0.000000     3     0       0.000000     4  -180 # 2 2 2 2
    5     4       0.000000     1     0       3.158000     2  -180       0.000000     3     0       0.000000     4  -180 # 5 2 2 2
    6     4       0.000000     1     0       2.986000     2  -180       0.000000     3     0       0.000000     4  -180 # 5 2 2 5
    7     4       0.000000     1     0       7.189500     2  -180       0.000000     3     0       0.000000     4  -180 # 2 2 2 40
    8     4       0.000000     1     0       1.500000     2  -180       0.000000     3     0       0.000000     4  -180 # 5 2 2 40
    9     4       0.000000     1     0       0.000000     2  -180       0.000000     3     0       0.304500     4  -180 # 167 165 165 167

Improper Coeffs

    1       13.668602      180.000000  # 167 168 2 167
    2        1.366860      180.000000  # 5 2 2 2
    3        6.258781      180.000000  # 168 2 2 2

Atoms

       1      444        1     0.00000   26.31500   34.58317   23.80981
       2      444        1     0.00000   23.80981   26.31500   34.58317
       3      444        1     0.00000   34.58317   23.80981   26.31500
       4      444        1     0.00000   26.31500   34.58317   28.82019
       5      444        1     0.00000   23.80981   26.31500   18.04683
       6      444        1     0.00000   28.82019   26.31500   34.58317
       7      444        1     0.00000   18.04683   23.80981   26.31500
       8      444        1     0.00000   28.82019   26.31500   18.04683
       9      444        1     0.00000   34.58317   26.31500   23.80981
      10      444        1     0.00000   26.31500   23.80981   34.58317
      11      444        1     0.00000   23.80981   34.58317   26.31500
      12      444        1     0.00000   34.58317   26.31500   28.82019
      13      444        1     0.00000   26.31500   23.80981   18.04683
      14      444        1     0.00000   26.31500   28.82019   34.58317
      15      444        1     0.00000   23.80981   18.04683   26.31500
      16      444        1     0.00000   26.31500   28.82019   18.04683
      17      444        1     0.00000   26.31500   18.04683   28.82019
      18      444        1     0.00000   18.04683   28.82019   26.31500
      19      444        1     0.00000   26.31500   18.04683   23.80981
      20      444        1     0.00000   34.58317   28.82019   26.31500
      21      444        1     0.00000   18.04683   26.31500   28.82019
      22      444        1     0.00000   28.82019   18.04683   26.31500
      23      444        1     0.00000   18.04683   26.31500   23.80981
      24      444        1     0.00000   28.82019   34.58317   26.31500
      25      444        1     0.00000   26.31500    8.26817   50.12481
      26      444        1     0.00000    0.00000    8.26817   23.80981
      27      444        1     0.00000    0.00000   34.58317   50.12481
      28      444        1     0.00000   23.80981    0.00000    8.26817
      29      444        1     0.00000   50.12481    0.00000   34.58317
      30      444        1     0.00000   50.12481   26.31500    8.26817
      31      444        1     0.00000   34.58317   50.12481    0.00000
      32      444        1     0.00000    8.26817   50.12481   26.31500
      33      444        1     0.00000    8.26817   23.80981    0.00000
      34      444        1     0.00000   26.31500    8.26817    2.50519
      35      444        1     0.00000    0.00000    8.26817   28.82019
      36      444        1     0.00000    0.00000   34.58317    2.50519
      37      444        1     0.00000   23.80981    0.00000   44.36183
      38      444        1     0.00000   50.12481    0.00000   18.04683
      39      444        1     0.00000   50.12481   26.31500   44.36183
      40      444        1     0.00000   28.82019    0.00000    8.26817
      41      444        1     0.00000    2.50519    0.00000   34.58317
      42      444        1     0.00000    2.50519   26.31500    8.26817
      43      444        1     0.00000   18.04683   50.12481    0.00000
      44      444        1     0.00000   44.36183   50.12481   26.31500
      45      444        1     0.00000   44.36183   23.80981    0.00000
      46      444        1     0.00000   28.82019    0.00000   44.36183
      47      444        1     0.00000    2.50519    0.00000   18.04683
      48      444        1     0.00000    2.50519   26.31500   44.36183
      49      444        1     0.00000   34.58317    0.00000   50.12481
      50      444        1     0.00000    8.26817    0.00000   23.80981
      51      444        1     0.00000    8.26817   26.31500   50.12481
      52      444        1     0.00000   26.31500   50.12481    8.26817
      53      444        1     0.00000    0.00000   50.12481   34.58317
      54      444        1     0.00000    0.00000   23.80981    8.26817
      55      444        1     0.00000   23.80981    8.26817    0.00000
      56      444        1     0.00000   50.12481    8.26817   26.31500
      57      444        1     0.00000   50.12481   34.58317    0.00000
      58      444        1     0.00000   34.58317    0.00000    2.50519
      59      444        1     0.00000    8.26817    0.00000   28.82019
      60      444        1     0.00000    8.26817   26.31500    2.50519
      61      444        1     0.00000   26.31500   50.12481   44.36183
      62      444        1     0.00000    0.00000   50.12481   18.04683
      63      444        1     0.00000    0.00000   23.80981   44.36183
      64      444        1     0.00000   26.31500    2.50519    8.26817
      65      444        1     0.00000    0.00000    2.50519   34.58317
      66      444        1     0.00000    0.00000   28.82019    8.26817
      67      444        1     0.00000   23.80981   44.36183    0.00000
      68      444        1     0.00000   50.12481   44.36183   26.31500
      69      444        1     0.00000   50.12481   18.04683    0.00000
      70      444        1     0.00000   26.31500    2.50519   44.36183
      71      444        1     0.00000    0.00000    2.50519   18.04683
      72      444        1     0.00000    0.00000   28.82019   44.36183
      73      444        1     0.00000   26.31500   44.36183    2.50519
      74      444        1     0.00000    0.00000   44.36183   28.82019
      75      444        1     0.00000    0.00000   18.04683    2.50519
      76      444        1     0.00000   18.04683    2.50519    0.00000
      77      444        1     0.00000   44.36183    2.50519   26.31500
      78      444        1     0.00000   44.36183   28.82019    0.00000
      79      444        1     0.00000   26.31500   44.36183   50.12481
      80      444        1     0.00000    0.00000   44.36183   23.80981
      81      444        1     0.00000    0.00000   18.04683   50.12481
      82      444        1     0.00000   34.58317    2.50519    0.00000
      83      444        1     0.00000    8.26817    2.50519   26.31500
      84      444        1     0.00000    8.26817   28.82019    0.00000
      85      444        1     0.00000   18.04683    0.00000    2.50519
      86      444        1     0.00000   44.36183    0.00000   28.82019
      87      444        1     0.00000   44.36183   26.31500    2.50519
      88      444        1     0.00000   28.82019   44.36183    0.00000
      89      444        1     0.00000    2.50519   44.36183   26.31500
      90      444        1     0.00000    2.50519   18.04683    0.00000
      91      444        1     0.00000   18.04683    0.00000   50.12481
      92      444        1     0.00000   44.36183    0.00000   23.80981
      93      444        1     0.00000   44.36183   26.31500   50.12481
      94      444        1     0.00000   28.82019    8.26817    0.00000
      95      444        1     0.00000    2.50519    8.26817   26.31500
      96      444        1     0.00000    2.50519   34.58317    0.00000
      97      444        2     0.00000   39.97775   51.63003   13.66275
      98      444        2     0.00000   13.66275   39.97775   51.63003
      99      444        2     0.00000   51.63003   13.66275   39.97775
     100      444        2     0.00000   39.97775   51.63003   38.96725
     101      444        2     0.00000   13.66275   39.97775    0.99997
     102      444        2     0.00000   51.63003   13.66275   12.65225
     103      444        2     0.00000   12.65225   51.63003   13.66275
     104      444        2     0.00000   38.96725   39.97775   51.63003
     105      444        2     0.00000    0.99997   13.66275   39.97775
     106      444        2     0.00000   12.65225   51.63003   38.96725
     107      444        2     0.00000   38.96725   39.97775    0.99997
     108      444        2     0.00000    0.99997   13.66275   12.65225
     109      444        2     0.00000   51.63003   39.97775   13.66275
     110      444        2     0.00000   39.97775   13.66275   51.63003
     111      444        2     0.00000   13.66275   51.63003   39.97775
     112      444        2     0.00000   51.63003   39.97775   38.96725
     113      444        2     0.00000   39.97775   13.66275    0.99997
     114      444        2     0.00000   13.66275   51.63003   12.65225
     115      444        2     0.00000   51.63003   12.65225   13.66275
     116      444        2     0.00000   39.97775   38.96725   51.63003
     117      444        2     0.00000   13.66275    0.99997   39.97775
     118      444        2     0.00000   51.63003   12.65225   38.96725
     119      444        2     0.00000   39.97775   38.96725    0.99997
     120      444        2     0.00000   13.66275    0.99997   12.65225
     121      444        2     0.00000   12.65225    0.99997   38.96725
     122      444        2     0.00000   38.96725   12.65225    0.99997
     123      444        2     0.00000    0.99997   38.96725   12.65225
     124      444        2     0.00000   12.65225    0.99997   13.66275
     125      444        2     0.00000   38.96725   12.65225   51.63003
     126      444        2     0.00000    0.99997   38.96725   39.97775
     127      444        2     0.00000   39.97775    0.99997   38.96725
     128      444        2     0.00000   13.66275   12.65225    0.99997
     129      444        2     0.00000   51.63003   38.96725   12.65225
     130      444        2     0.00000   39.97775    0.99997   13.66275
     131      444        2     0.00000   13.66275   12.65225   51.63003
     132      444        2     0.00000   51.63003   38.96725   39.97775
     133      444        2     0.00000    0.99997   12.65225   38.96725
     134      444        2     0.00000   12.65225   38.96725    0.99997
     135      444        2     0.00000   38.96725    0.99997   12.65225
     136      444        2     0.00000    0.99997   12.65225   13.66275
     137      444        2     0.00000   12.65225   38.96725   51.63003
     138      444        2     0.00000   38.96725    0.99997   39.97775
     139      444        2     0.00000    0.99997   39.97775   38.96725
     140      444        2     0.00000   12.65225   13.66275    0.99997
     141      444        2     0.00000   38.96725   51.63003   12.65225
     142      444        2     0.00000    0.99997   39.97775   13.66275
     143      444        2     0.00000   12.65225   13.66275   51.63003
     144      444        2     0.00000   38.96725   51.63003   39.97775
     145      444        2     0.00000   39.97775   25.31503   39.97775
     146      444        2     0.00000   13.66275   25.31503   13.66275
     147      444        2     0.00000   13.66275   13.66275   25.31503
     148      444        2     0.00000   39.97775   39.97775   25.31503
     149      444        2     0.00000   25.31503   39.97775   39.97775
     150      444        2     0.00000   25.31503   13.66275   13.66275
     151      444        2     0.00000   39.97775   25.31503   12.65225
     152      444        2     0.00000   13.66275   25.31503   38.96725
     153      444        2     0.00000   13.66275   13.66275   27.31497
     154      444        2     0.00000   39.97775   39.97775   27.31497
     155      444        2     0.00000   25.31503   39.97775   12.65225
     156      444        2     0.00000   25.31503   13.66275   38.96725
     157      444        2     0.00000   12.65225   25.31503   39.97775
     158      444        2     0.00000   38.96725   25.31503   13.66275
     159      444        2     0.00000   38.96725   13.66275   25.31503
     160      444        2     0.00000   12.65225   39.97775   25.31503
     161      444        2     0.00000   27.31497   39.97775   39.97775
     162      444        2     0.00000   27.31497   13.66275   13.66275
     163      444        2     0.00000   12.65225   25.31503   12.65225
     164      444        2     0.00000   38.96725   25.31503   38.96725
     165      444        2     0.00000   38.96725   13.66275   27.31497
     166      444        2     0.00000   12.65225   39.97775   27.31497
     167      444        2     0.00000   27.31497   39.97775   12.65225
     168      444        2     0.00000   27.31497   13.66275   38.96725
     169      444        2     0.00000   25.31503   38.96725   13.66275
     170      444        2     0.00000   25.31503   12.65225   39.97775
     171      444        2     0.00000   39.97775   12.65225   25.31503
     172      444        2     0.00000   13.66275   38.96725   25.31503
     173      444        2     0.00000   13.66275   27.31497   13.66275
     174      444        2     0.00000   39.97775   27.31497   39.97775
     175      444        2     0.00000   25.31503   38.96725   38.96725
     176      444        2     0.00000   25.31503   12.65225   12.65225
     177      444        2     0.00000   39.97775   12.65225   27.31497
     178      444        2     0.00000   13.66275   38.96725   27.31497
     179      444        2     0.00000   13.66275   27.31497   38.96725
     180      444        2     0.00000   39.97775   27.31497   12.65225
     181      444        2     0.00000   12.65225   27.31497   12.65225
     182      444        2     0.00000   38.96725   27.31497   38.96725
     183      444        2     0.00000   38.96725   38.96725   27.31497
     184      444        2     0.00000   12.65225   12.65225   27.31497
     185      444        2     0.00000   27.31497   12.65225   12.65225
     186      444        2     0.00000   27.31497   38.96725   38.96725
     187      444        2     0.00000   12.65225   27.31497   39.97775
     188      444        2     0.00000   38.96725   27.31497   13.66275
     189      444        2     0.00000   38.96725   38.96725   25.31503
     190      444        2     0.00000   12.65225   12.65225   25.31503
     191      444        2     0.00000   27.31497   12.65225   39.97775
     192      444        2     0.00000   27.31497   38.96725   13.66275
     193      444        2     0.00000   42.99871   51.59845   16.68371
     194      444        2     0.00000   16.68371   42.99871   51.59845
     195      444        2     0.00000   51.59845   16.68371   42.99871
     196      444        2     0.00000   42.99871   51.59845   35.94629
     197      444        2     0.00000   16.68371   42.99871    1.03155
     198      444        2     0.00000   51.59845   16.68371    9.63129
     199      444        2     0.00000    9.63129   51.59845   16.68371
     200      444        2     0.00000   35.94629   42.99871   51.59845
     201      444        2     0.00000    1.03155   16.68371   42.99871
     202      444        2     0.00000    9.63129   51.59845   35.94629
     203      444        2     0.00000   35.94629   42.99871    1.03155
     204      444        2     0.00000    1.03155   16.68371    9.63129
     205      444        2     0.00000   51.59845   42.99871   16.68371
     206      444        2     0.00000   42.99871   16.68371   51.59845
     207      444        2     0.00000   16.68371   51.59845   42.99871
     208      444        2     0.00000   51.59845   42.99871   35.94629
     209      444        2     0.00000   42.99871   16.68371    1.03155
     210      444        2     0.00000   16.68371   51.59845    9.63129
     211      444        2     0.00000   51.59845    9.63129   16.68371
     212      444        2     0.00000   42.99871   35.94629   51.59845
     213      444        2     0.00000   16.68371    1.03155   42.99871
     214      444        2     0.00000   51.59845    9.63129   35.94629
     215      444        2     0.00000   42.99871   35.94629    1.03155
     216      444        2     0.00000   16.68371    1.03155    9.63129
     217      444        2     0.00000    9.63129    1.03155   35.94629
     218      444        2     0.00000   35.94629    9.63129    1.03155
     219      444        2     0.00000    1.03155   35.94629    9.63129
     220      444        2     0.00000    9.63129    1.03155   16.68371
     221      444        2     0.00000   35.94629    9.63129   51.59845
     222      444        2     0.00000    1.03155   35.94629   42.99871
     223      444        2     0.00000   42.99871    1.03155   35.94629
     224      444        2     0.00000   16.68371    9.63129    1.03155
     225      444        2     0.00000   51.59845   35.94629    9.63129
     226      444        2     0.00000   42.99871    1.03155   16.68371
     227      444        2     0.00000   16.68371    9.63129   51.59845
     228      444        2     0.00000   51.59845   35.94629   42.99871
     229      444        2     0.00000    1.03155    9.63129   35.94629
     230      444        2     0.00000    9.63129   35.94629    1.03155
     231      444        2     0.00000   35.94629    1.03155    9.63129
     232      444        2     0.00000    1.03155    9.63129   16.68371
     233      444        2     0.00000    9.63129   35.94629   51.59845
     234      444        2     0.00000   35.94629    1.03155   42.99871
     235      444        2     0.00000    1.03155   42.99871   35.94629
     236      444        2     0.00000    9.63129   16.68371    1.03155
     237      444        2     0.00000   35.94629   51.59845    9.63129
     238      444        2     0.00000    1.03155   42.99871   16.68371
     239      444        2     0.00000    9.63129   16.68371   51.59845
     240      444        2     0.00000   35.94629   51.59845   42.99871
     241      444        2     0.00000   42.99871   25.28345   42.99871
     242      444        2     0.00000   16.68371   25.28345   16.68371
     243      444        2     0.00000   16.68371   16.68371   25.28345
     244      444        2     0.00000   42.99871   42.99871   25.28345
     245      444        2     0.00000   25.28345   42.99871   42.99871
     246      444        2     0.00000   25.28345   16.68371   16.68371
     247      444        2     0.00000   42.99871   25.28345    9.63129
     248      444        2     0.00000   16.68371   25.28345   35.94629
     249      444        2     0.00000   16.68371   16.68371   27.34655
     250      444        2     0.00000   42.99871   42.99871   27.34655
     251      444        2     0.00000   25.28345   42.99871    9.63129
     252      444        2     0.00000   25.28345   16.68371   35.94629
     253      444        2     0.00000    9.63129   25.28345   42.99871
     254      444        2     0.00000   35.94629   25.28345   16.68371
     255      444        2     0.00000   35.94629   16.68371   25.28345
     256      444        2     0.00000    9.63129   42.99871   25.28345
     257      444        2     0.00000   27.34655   42.99871   42.99871
     258      444        2     0.00000   27.34655   16.68371   16.68371
     259      444        2     0.00000    9.63129   25.28345    9.63129
     260      444        2     0.00000   35.94629   25.28345   35.94629
     261      444        2     0.00000   35.94629   16.68371   27.34655
     262      444        2     0.00000    9.63129   42.99871   27.34655
     263      444        2     0.00000   27.34655   42.99871    9.63129
     264      444        2     0.00000   27.34655   16.68371   35.94629
     265      444        2     0.00000   25.28345   35.94629   16.68371
     266      444        2     0.00000   25.28345    9.63129   42.99871
     267      444        2     0.00000   42.99871    9.63129   25.28345
     268      444        2     0.00000   16.68371   35.94629   25.28345
     269      444        2     0.00000   16.68371   27.34655   16.68371
     270      444        2     0.00000   42.99871   27.34655   42.99871
     271      444        2     0.00000   25.28345   35.94629   35.94629
     272      444        2     0.00000   25.28345    9.63129    9.63129
     273      444        2     0.00000   42.99871    9.63129   27.34655
     274      444        2     0.00000   16.68371   35.94629   27.34655
     275      444        2     0.00000   16.68371   27.34655   35.94629
     276      444        2     0.00000   42.99871   27.34655    9.63129
     277      444        2     0.00000    9.63129   27.34655    9.63129
     278      444        2     0.00000   35.94629   27.34655   35.94629
     279      444        2     0.00000   35.94629   35.94629   27.34655
     280      444        2     0.00000    9.63129    9.63129   27.34655
     281      444        2     0.00000   27.34655    9.63129    9.63129
     282      444        2     0.00000   27.34655   35.94629   35.94629
     283      444        2     0.00000    9.63129   27.34655   42.99871
     284      444        2     0.00000   35.94629   27.34655   16.68371
     285      444        2     0.00000   35.94629   35.94629   25.28345
     286      444        2     0.00000    9.63129    9.63129   25.28345
     287      444        2     0.00000   27.34655    9.63129   42.99871
     288      444        2     0.00000   27.34655   35.94629   16.68371
     289      444        2     0.00000   41.99874   51.61950   15.68374
     290      444        2     0.00000   15.68374   41.99874   51.61950
     291      444        2     0.00000   51.61950   15.68374   41.99874
     292      444        2     0.00000   41.99874   51.61950   36.94626
     293      444        2     0.00000   15.68374   41.99874    1.01050
     294      444        2     0.00000   51.61950   15.68374   10.63126
     295      444        2     0.00000   10.63126   51.61950   15.68374
     296      444        2     0.00000   36.94626   41.99874   51.61950
     297      444        2     0.00000    1.01050   15.68374   41.99874
     298      444        2     0.00000   10.63126   51.61950   36.94626
     299      444        2     0.00000   36.94626   41.99874    1.01050
     300      444        2     0.00000    1.01050   15.68374   10.63126
     301      444        2     0.00000   51.61950   41.99874   15.68374
     302      444        2     0.00000   41.99874   15.68374   51.61950
     303      444        2     0.00000   15.68374   51.61950   41.99874
     304      444        2     0.00000   51.61950   41.99874   36.94626
     305      444        2     0.00000   41.99874   15.68374    1.01050
     306      444        2     0.00000   15.68374   51.61950   10.63126
     307      444        2     0.00000   51.61950   10.63126   15.68374
     308      444        2     0.00000   41.99874   36.94626   51.61950
     309      444        2     0.00000   15.68374    1.01050   41.99874
     310      444        2     0.00000   51.61950   10.63126   36.94626
     311      444        2     0.00000   41.99874   36.94626    1.01050
     312      444        2     0.00000   15.68374    1.01050   10.63126
     313      444        2     0.00000   10.63126    1.01050   36.94626
     314      444        2     0.00000   36.94626   10.63126    1.01050
     315      444        2     0.00000    1.01050   36.94626   10.63126
     316      444        2     0.00000   10.63126    1.01050   15.68374
     317      444        2     0.00000   36.94626   10.63126   51.61950
     318      444        2     0.00000    1.01050   36.94626   41.99874
     319      444        2     0.00000   41.99874    1.01050   36.94626
     320      444        2     0.00000   15.68374   10.63126    1.01050
     321      444        2     0.00000   51.61950   36.94626   10.63126
     322      444        2     0.00000   41.99874    1.01050   15.68374
     323      444        2     0.00000   15.68374   10.63126   51.61950
     324      444        2     0.00000   51.61950   36.94626   41.99874
     325      444        2     0.00000    1.01050   10.63126   36.94626
     326      444        2     0.00000   10.63126   36.94626    1.01050
     327      444        2     0.00000   36.94626    1.01050   10.63126
     328      444        2     0.00000    1.01050   10.63126   15.68374
     329      444        2     0.00000   10.63126   36.94626   51.61950
     330      444        2     0.00000   36.94626    1.01050   41.99874
     331      444        2     0.00000    1.01050   41.99874   36.94626
     332      444        2     0.00000   10.63126   15.68374    1.01050
     333      444        2     0.00000   36.94626   51.61950   10.63126
     334      444        2     0.00000    1.01050   41.99874   15.68374
     335      444        2     0.00000   10.63126   15.68374   51.61950
     336      444        2     0.00000   36.94626   51.61950   41.99874
     337      444        2     0.00000   41.99874   25.30450   41.99874
     338      444        2     0.00000   15.68374   25.30450   15.68374
     339      444        2     0.00000   15.68374   15.68374   25.30450
     340      444        2     0.00000   41.99874   41.99874   25.30450
     341      444        2     0.00000   25.30450   41.99874   41.99874