LAMMPS data file via write_data, version 7 Aug 2019

16870 atoms
3 atom types

2.5272234471137063e+00 8.0232776552884218e+01 xlo xhi
1.2572939844639264e-01 3.9254270601552989e+01 ylo yhi
1.5963024181959236e+01 5.9036975818043402e+01 zlo zhi

Masses

1 12.0107
2 15.9994
3 1.00794

Atoms # full

1777 1 2 -3.7907935740481430e-01 9.3648600969534552e+00 1.0594416188949056e+00 1.7896357006791650e+01 1 1 0
1560 1 1 1.2216669430693418e-01 9.7899237464863251e+00 5.6908628125535732e-01 1.9203426505311455e+01 1 1 0
1620 1 1 -4.9483639114945771e-02 1.1216006463748817e+01 8.2284265742107476e-01 1.9467346556029213e+01 1 1 0
1499 1 1 -1.0042277190795797e-01 5.4021110931390295e+00 1.1609738608999549e+00 2.0047589987188225e+01 1 1 0
1559 1 1 1.4463005053841330e-01 6.6368545600022477e+00 1.0866994715843261e+00 1.9357042826427531e+01 1 1 0
1561 1 1 -9.7775145396344923e-02 7.3846925228612390e+00 2.2934143781504241e+00 1.9086790014957867e+01 1 1 0
1562 1 1 1.4235065184882506e-01 8.8377185353920531e+00 2.1486916142790098e+00 1.8786514651852347e+01 1 1 0
1563 1 1 2.4069548257156440e-01 6.6560286196972136e+00 3.4905814042468188e+00 1.9146851277002980e+01 1 1 0
1564 1 1 -1.1451705164294836e-01 9.5492910359307004e+00 3.3272617793929045e+00 1.9259486477129219e+01 1 1 0
1622 1 1 2.2477823308878306e-02 1.1794945598416231e+01 2.1056182601808553e+00 1.9458921019700920e+01 1 1 0
1624 1 1 1.4201258892014273e-01 1.0962531800478251e+01 3.3304479998333418e+00 1.9751555317502724e+01 1 1 0
1812 1 2 -4.8176617789456266e-01 3.4187454174334584e+00 2.0741988697039626e+00 1.8825463126050561e+01 1 1 0
1566 1 1 1.7164742874427527e-01 8.9084468687665073e+00 4.5387585179293151e+00 1.9041144262954401e+01 1 1 0
1565 1 2 -3.5223079535356328e-01 7.4512561326363986e+00 4.6161803061259468e+00 1.8913036576926693e+01 1 1 0
1626 1 1 -2.8485229028261165e-02 1.1755511965823070e+01 4.5886658050884863e+00 1.9562934600843477e+01 1 1 0
1501 1 1 2.4974301194038206e-01 4.5032015042409421e+00 2.3127203396436022e+00 1.9729622018641578e+01 1 1 0
1792 1 2 -4.2423904145179936e-01 1.0911405984356612e+01 3.2596378278725409e+00 2.1226734510273563e+01 1 1 0
1503 1 2 -3.7443063068894200e-01 5.2650826814686340e+00 3.5175330572095036e+00 1.9158248178248876e+01 1 1 0
1500 1 1 1.3885807006198272e-01 3.4744724469591302e+00 2.5772117008729643e+00 2.0889931730750682e+01 1 1 0
1504 1 1 7.7505325614367293e-02 3.4171134581037999e+00 5.0611646463694315e+00 2.0325916903698833e+01 1 1 0
1793 1 3 3.9468729780660211e-01 1.0028006593313734e+01 3.4988274947632569e+00 2.1655759449924712e+01 1 1 0
10777 2 3 3.7540717614923835e-01 6.1936403698492963e+00 2.2017785939050212e+00 2.1738094382159812e+01 0 1 0
1505 1 1 -2.4698774780476287e-01 4.6973556618647647e+00 5.4903480238262548e+00 2.1055271614478272e+01 1 1 0
12038 2 2 -7.4924642296264787e-01 7.9900108495755866e+00 2.2697622695942621e+00 2.4644475445959511e+01 0 0 0
10776 2 3 4.2331002890745129e-01 7.5670386497953679e+00 2.9484615967367933e+00 2.1488547858053376e+01 0 1 0
10775 2 2 -6.9697366255841775e-01 7.1878302875553342e+00 2.1761629772708022e+00 2.1805302114984379e+01 0 1 0
3710 1 3 3.1718792582146271e-01 6.5454926958757955e+00 4.4573911886625659e+00 2.3922157013022478e+01 1 1 0
1655 1 3 1.9867561117825622e-01 4.9657127050287437e+00 4.8365783406434000e+00 2.1844636593657206e+01 1 1 0
1911 1 2 -4.9192515056062203e-01 4.3776482624579129e+00 2.8975684508132371e+00 2.1963486617471322e+01 1 1 0
1912 1 3 3.2690208384323910e-01 4.1305076241370804e+00 2.4219195117621370e+00 2.2748693866046136e+01 1 1 0
15204 2 3 4.4196924332819959e-01 6.6437817381292108e+00 1.5481398333114373e+00 2.3872258634971676e+01 0 0 0
15203 2 2 -6.7628254781065733e-01 5.8739392087171440e+00 9.7836780789505251e-01 2.4009245236126741e+01 0 0 0
2045 1 1 1.7336185596309159e-01 1.1934162357027200e+01 9.9114630346373100e-01 2.3959786798256690e+01 0 1 0
3058 1 2 -4.1581503578399548e-01 1.0592996985856692e+01 5.3318822098194962e+00 2.3980244178578527e+01 0 1 0
3059 1 1 3.3845271343828354e-01 1.0500734193909722e+01 3.8032787001384061e+00 2.4077763336929319e+01 0 1 0
3060 1 2 -5.7947317028634571e-01 9.2904895424842131e+00 3.4704544322878292e+00 2.3355243034879205e+01 0 1 0
3061 1 2 -5.2907953886823766e-01 1.0323583499257683e+01 3.3853790942544815e+00 2.5480579635368482e+01 0 1 0
3062 1 3 4.2228227209415919e-01 1.0786298490151269e+01 2.5554957422108844e+00 2.5765958755137628e+01 0 1 0
3063 1 2 -4.9875688186319972e-01 1.0598098178199034e+01 7.5886651761079116e-01 2.4293333475208147e+01 0 1 0
2053 1 1 5.7299426922145437e-02 1.1907536696683627e+01 5.8505825906165496e+00 2.3897831311047948e+01 0 1 0
12124 2 3 5.5319389735218549e-01 9.7464906876287216e+00 5.5521365221923280e-01 2.3551944114290670e+01 0 0 0
3707 1 1 3.4027645504383264e-01 4.7171747108607400e+00 5.3726696953863406e+00 2.4597942157863759e+01 1 1 0
2049 1 1 -3.6858398232819063e-02 1.1904536468479959e+01 3.3950487878205928e+00 2.3772324846896886e+01 0 1 0
15794 2 2 -7.1560610441365990e-01 7.9494496700315986e+00 5.1495200174828000e+00 2.4654877826624762e+01 0 0 0
3708 1 2 -4.7356149484178900e-01 5.5028799295120248e+00 4.4144304597343123e+00 2.3872949798960679e+01 1 1 0
3984 1 3 4.8630810630312443e-01 1.1356948281509704e+01 5.3034725356675034e+00 2.5635785637976628e+01 1 1 0
3511 1 1 -2.2471605406552086e-01 5.7072634789295256e+00 6.0405806083908642e+00 2.5635699368928158e+01 1 1 0
12040 2 3 4.0596668552186210e-01 7.6466438147418776e+00 2.8062063833537043e+00 2.5341373560863762e+01 0 0 0
12039 2 3 5.2910857071325823e-01 8.7002956964790368e+00 2.7213342639431994e+00 2.3930477450131391e+01 0 0 0
3709 1 2 -3.9298929297353685e-01 3.5309091482372343e+00 5.7989319989280084e+00 2.4420069980688400e+01 1 1 0
3842 1 2 -5.7151298109345661e-01 3.4497244871673067e+00 1.6685365914227659e+00 2.5296190663655636e+01 1 1 0
1978 1 3 2.0028446427177399e-01 5.5843999570342797e+00 5.5550885091334345e+00 2.0408492310012253e+01 1 1 0
1813 1 3 3.9230667171387246e-01 3.2861405681288089e+00 2.6632685746085878e+00 1.8015030061405284e+01 1 1 0
1628 1 1 1.2044770144652862e-01 1.1178189681348721e+01 5.6658069177602908e+00 1.8866585131627058e+01 1 1 0
1567 1 1 -2.5328536310725527e-02 9.6058931555781140e+00 5.7458747298874053e+00 1.8833379237208657e+01 1 1 0
1506 1 1 -2.7399883228009143e-02 2.8748692645913994e+00 6.0371043764298147e+00 1.9432201492841571e+01 1 1 0
1498 1 1 -8.3619664952920905e-02 2.7741691169558100e+00 1.2999871156683562e+00 2.1218308681218925e+01 1 1 0
1502 1 1 -2.0139495708495686e-02 2.8067290139662648e+00 3.8176043353812927e+00 2.0543933949218939e+01 1 1 0
3843 1 3 3.9737532507226908e-01 4.3799995912950056e+00 1.5835468079196540e+00 2.4993849636494421e+01 1 1 0
4026 1 3 2.2182386027923692e-01 6.4222994700623772e+00 5.2628215386130481e+00 2.6037019173489686e+01 1 1 0
15795 2 3 4.1405528321417073e-01 8.2951279886821609e+00 6.0510695111968058e+00 2.4581449887560350e+01 0 0 0
15824 2 2 -6.5224083223599016e-01 7.9935522522495113e+00 4.7520885443406016e+00 2.1713181879354256e+01 0 0 0
12123 2 3 3.6246322401290904e-01 8.5688310259639682e+00 1.2202083436466544e+00 2.2510164433078774e+01 0 0 0
11195 2 2 -6.3186873337845262e-01 5.9508219951771872e+00 1.8909418742392334e+00 1.6382418667392628e+01 0 0 0
15796 2 3 4.1445714369149828e-01 8.6440525443037544e+00 4.5969094949622500e+00 2.5055693037060522e+01 0 0 0
1743 1 1 3.3098095319921172e-01 8.3965033886148532e+00 6.1832892209799866e+00 1.6305123472076687e+01 1 1 0
12122 2 2 -6.4718292747164063e-01 8.8016209651352071e+00 3.9306254128105361e-01 2.3032782601947027e+01 0 0 0
11197 2 3 2.9260929163253696e-01 5.9116883191886345e+00 2.7991625786234127e+00 1.6799188317831469e+01 0 0 0
14804 2 2 -6.5121390121384115e-01 5.5697463652393608e+00 4.8512556464074903e+00 1.6590805342786055e+01 0 0 1
14805 2 3 3.4707772181585556e-01 4.9724566498788274e+00 4.6327418985849640e+00 1.7362437194122787e+01 0 0 1
1496 1 1 1.5228040230255097e-01 3.7301389558778357e+00 3.1042791898114414e-01 2.1505672462961151e+01 1 1 0
15825 2 3 4.0596004266143976e-01 8.2252699124009272e+00 4.7279071744157957e+00 2.2660744621573599e+01 0 0 0
14806 2 3 2.9733469779389815e-01 6.4701686322683809e+00 4.9457546767762306e+00 1.7068247209032918e+01 0 0 1
15826 2 3 3.5159405879760142e-01 7.4340080952745380e+00 5.5155773481745225e+00 2.1468716804775195e+01 0 0 0
1745 1 2 -3.4971757862493730e-01 9.0842215308849319e+00 5.0945593861803200e+00 1.6366540564015516e+01 1 1 0
16619 2 2 -6.9543554456645029e-01 1.1048004835561102e+01 2.6595796715078897e+00 1.6797775828854220e+01 0 0 0
3983 1 2 -4.7906518960517391e-01 1.1925675692259176e+01 5.4745144581099838e+00 2.6377235318808911e+01 1 1 0
12411 2 3 4.4976335233795439e-01 8.9848850617938218e+00 9.8726418362988733e-01 2.5490829828284312e+01 0 1 0
13823 2 2 -6.4752969136958194e-01 2.7945979215269126e+00 3.3692944924152788e+00 1.6547771555950238e+01 1 0 1
1766 1 2 -3.0428286902105867e-01 1.2093558675094499e+01 6.3699704348983053e+00 1.7978047518114163e+01 1 1 0
10413 2 3 3.8524009210609461e-01 1.0204687206793837e+01 6.5407662487820897e+00 2.2649917124386789e+01 0 0 0
16620 2 3 4.9415989782409880e-01 1.0546918432172276e+01 1.8671766039628632e+00 1.7039789715344622e+01 0 0 0
12410 2 2 -6.7461836567651745e-01 8.9977701947404718e+00 3.0775595827392577e-01 2.6136675612144987e+01 0 1 0
16587 2 3 2.8105116221365939e-01 2.6563077071407144e+00 9.2941200447506955e-01 1.6331018142278786e+01 1 1 0
16621 2 3 4.7070549234884157e-01 1.0591443415027681e+01 3.4131872930054863e+00 1.6378578013691772e+01 0 0 0
15312 2 3 3.8377019228969761e-01 4.6739524661927572e+00 6.7112367595104794e-01 1.7427178892389833e+01 1 0 0
3509 1 2 -3.2581814960700645e-01 4.8828759275630311e+00 3.9194689327665002e+00 2.6725963741254731e+01 1 1 0
11730 2 3 4.1029330576466233e-01 5.2385042058953237e+00 6.4944275234040072e+00 1.6364820716663264e+01 0 0 0
11238 2 3 3.5140231427150426e-01 8.0411396425320714e+00 2.0438743526899552e+00 1.6084186712549684e+01 0 0 1
12084 2 3 3.8871249153621429e-01 2.5322378279285545e+00 3.0141846647876904e+00 2.4858256779739250e+01 0 0 0
3706 1 3 1.1145745670200438e-01 6.3713247563730828e+00 6.8094589928326261e+00 2.5272929839697408e+01 1 1 0
11729 2 2 -6.2201155092510030e-01 4.3602790600371382e+00 6.9553566371350604e+00 1.6328546455629333e+01 0 0 0
3514 1 1 -4.7614102617980783e-02 2.8269454476069842e+00 7.7926099866537042e+00 2.6640607488829360e+01 1 1 0
968 1 1 2.8619851702711552e-01 1.0812531513946894e+01 1.1673854797397212e+01 1.6066492397381104e+01 0 1 0
969 1 2 -3.2435851897908086e-01 1.0252335585939473e+01 1.0635705699729282e+01 1.6602876501711975e+01 0 1 0
3927 1 3 4.1599559410064102e-01 8.9385186644105286e+00 9.7708421632817721e+00 2.6248269372269899e+01 1 1 0
1742 1 3 1.8246301081346319e-01 7.1298525374940844e+00 6.9040729279756059e+00 1.7974969507518072e+01 1 1 0
10412 2 2 -5.8532636964555229e-01 1.0074019830074684e+01 7.2421117026050874e+00 2.1913601120248387e+01 0 0 0
1508 1 2 -3.3191177181077819e-01 4.8716135696406022e+00 6.8619001647440356e+00 1.8978905346110373e+01 1 1 0
11670 2 3 3.5621729164942117e-01 8.1139367026057272e+00 8.2596515359918037e+00 2.3697926371741122e+01 0 0 0
1654 1 1 3.3810894150750342e-01 4.4314723819079127e+00 6.8767013947370481e+00 2.1829631341201601e+01 1 1 0
11671 2 3 3.5795615169079747e-01 7.0855541654987686e+00 7.1363131692092319e+00 2.3374559869673647e+01 0 0 0
11669 2 2 -6.5021886690098663e-01 8.0108813950905766e+00 7.3724650619774721e+00 2.3362275446205899e+01 0 0 0
15763 2 3 3.5818652788628125e-01 4.0884904519561758e+00 8.1911105384446223e+00 2.4495902327673793e+01 1 0 0
1656 1 2 -4.1806891443609689e-01 5.4572083779219547e+00 7.3812047275303447e+00 2.2424737351200935e+01 1 1 0
10414 2 3 4.2065090784153841e-01 1.0134493052029484e+01 8.0918672262272562e+00 2.2284148855506334e+01 0 0 0
1568 1 1 -2.7062114978891966e-01 8.0507234898774360e+00 7.2018546728017254e+00 1.7513050272708277e+01 1 1 0
1511 1 1 1.1908863525218809e-01 3.1894948308498723e+00 9.5407894075912409e+00 1.8015825455724531e+01 1 1 0
1512 1 1 4.3566014739155084e-02 4.7825702270015444e+00 9.4325405394109616e+00 1.8559023194028864e+01 1 1 0
1569 1 1 7.3583598719546520e-02 9.1421893251732573e+00 7.0394314009077634e+00 1.8579831317365421e+01 1 1 0
1571 1 1 7.3676350331112802e-03 9.7327881603831194e+00 8.1806980025876097e+00 1.9270453371181176e+01 1 1 0
1572 1 1 1.8362754281924787e-01 7.4769547856485028e+00 9.3982151858545340e+00 1.9355650701269692e+01 1 1 0
1573 1 1 1.0034909603842969e-01 8.9135770363579656e+00 9.1789442350140202e+00 1.9969584255148039e+01 1 1 0
1574 1 1 5.2653719139403185e-02 6.7547174275322730e+00 1.0687125966407161e+01 1.9130262487893489e+01 1 1 0
1575 1 1 8.6425364296804419e-02 9.6904336337255970e+00 1.0746799994758952e+01 2.0156029832687373e+01 1 1 0
1632 1 1 -2.1283846433915378e-02 1.1159355246474636e+01 8.3073074742933635e+00 1.9456267438886410e+01 1 1 0
1636 1 1 -3.2141980436345856e-02 1.1127058922397843e+01 1.0808801028356084e+01 1.9794697106652077e+01 1 1 0
1951 1 2 -3.2590777275101285e-01 7.2458879178876607e+00 9.8999179490398639e+00 1.8015598775839244e+01 1 1 0
1954 1 2 -4.0509974647239277e-01 4.3935563792838446e+00 9.5308432147935669e+00 1.7149462108501783e+01 1 1 0
1977 1 3 2.1408959369664246e-01 7.9815461989966936e+00 8.2258290685273217e+00 1.7249628913216508e+01 1 1 0
1514 1 1 1.3310693189426293e-01 5.1990464521450157e+00 1.0812895695117669e+01 1.9191274900834085e+01 1 1 0
1507 1 1 1.2892228694658175e-01 3.4787118142287592e+00 7.2470877230507460e+00 1.8962448658610260e+01 1 1 0
1510 1 1 2.3891251050533677e-01 5.3691779654657150e+00 8.1899361617855124e+00 1.9066526112829209e+01 1 1 0
1634 1 1 1.4294274608790136e-01 1.1867586957212829e+01 9.5896215451411919e+00 1.9539281775371553e+01 1 1 0
1570 1 2 -3.2377596338069242e-01 6.6571682990779850e+00 8.1881600571318991e+00 1.9624352732192566e+01 1 1 0
1786 1 2 -5.2544885230515115e-01 5.0167173375080099e+00 1.0897756036943232e+01 2.0657465737161857e+01 1 1 0
1653 1 2 -3.6116561987090207e-01 9.1366341452138382e+00 9.9005413808985772e+00 2.1197944097481429e+01 1 1 0
1515 1 1 1.3578169937226006e-01 3.4197561808645580e+00 1.1821727213997493e+01 1.7625817477305429e+01 1 1 0
1577 1 1 6.6805122587962798e-02 8.8996922823056046e+00 1.1773887017357382e+01 1.9378358923342493e+01 1 1 0
15192 2 3 3.4712496345684307e-01 7.4107452728791765e+00 9.7959176398311794e+00 2.1995825415039977e+01 0 0 0
15193 2 3 3.3573668581137656e-01 5.8909605584975751e+00 9.4998875476847910e+00 2.1999268109688789e+01 0 0 0
15191 2 2 -6.7491458066353449e-01 6.5796999005649059e+00 9.9370462485313418e+00 2.2538154715203717e+01 0 0 0
15761 2 2 -6.4195277205137913e-01 4.3535504667332976e+00 9.1164109958699164e+00 2.4543077088283713e+01 1 0 0
2061 1 1 -7.7134130836703119e-02 1.1752122359148220e+01 1.0781491479719705e+01 2.4710028885821810e+01 0 1 0
11051 2 2 -6.6975513084508598e-01 7.0556146504828501e+00 9.7539338694326716e+00 2.5262367529593266e+01 0 0 0
11053 2 3 3.6700305602666311e-01 7.0381644828815624e+00 1.0039995377068795e+01 2.4361980602353533e+01 0 0 0
3053 1 1 2.9482929240619915e-01 1.0285726521006541e+01 1.0904127805819293e+01 2.4537177328996229e+01 0 1 0
3054 1 2 -3.7811263391262384e-01 9.8350438274278993e+00 9.8310130059302683e+00 2.3951451824428307e+01 0 1 0
3055 1 2 -5.0956222069277068e-01 9.5346997826847808e+00 1.2103230885783811e+01 2.4653255925540432e+01 0 1 0
3057 1 3 9.2902781661361747e-02 1.0766585703524981e+01 8.1842871250212177e+00 2.4296235472798106e+01 0 1 0
2057 1 1 -6.5521114935721936e-02 1.1873894383484092e+01 8.3282794304175827e+00 2.4251077999413649e+01 0 1 0
11052 2 3 4.1557421656052612e-01 6.3395226039569987e+00 1.0135489084056925e+01 2.5835718651984006e+01 0 0 0
3925 1 3 3.2704143824458620e-01 4.3896952015374593e+00 1.1403940099930402e+01 2.5738171690879010e+01 1 1 0
1787 1 3 4.0078712759927415e-01 5.6277188608410516e+00 1.1533498495482917e+01 2.1206063089832980e+01 1 1 0
3056 1 3 3.5694741634232280e-01 1.0125890421384719e+01 1.2926420215139208e+01 2.4852166903871669e+01 0 1 0
1576 1 1 3.7292823096721911e-02 7.4137010978695530e+00 1.1841429843233371e+01 1.9767629478288548e+01 1 1 0
1516 1 1 -3.4421058939687915e-02 4.7145817369080723e+00 1.1948822152956357e+01 1.8312387584294321e+01 1 1 0
1638 1 1 1.2525732804291752e-02 1.1825238610152404e+01 1.2056217146754653e+01 1.9756028529210930e+01 1 1 0
15762 2 3 2.9170655685231434e-01 4.9819204031864217e+00 9.1454453666917743e+00 2.3807844578833510e+01 1 0 0
1899 1 2 -3.1137170566854711e-01 9.1883632938464572e+00 1.2502209062308115e+01 1.8178683231377057e+01 1 1 0
16764 2 3 4.0276996193288034e-01 3.8703939383517012e+00 1.0051177636613081e+01 2.1521888209497543e+01 0 0 0
1902 1 2 -2.5970956806786571e-01 2.9791583204698280e+00 1.2429384944576736e+01 1.6392205554430543e+01 1 1 0
2065 1 2 -3.5580064583788229e-01 1.1641615755095575e+01 1.2957758744762325e+01 2.5644593667740914e+01 0 1 0
1749 1 2 -4.1773095864933912e-01 6.7069003997316363e+00 1.2750056438275317e+01 2.0638660515503766e+01 1 1 0
11891 2 2 -6.4061642447466571e-01 6.6349991885857822e+00 1.2285891388004964e+01 2.3899336681555983e+01 0 0 0
16763 2 2 -7.3527060202545358e-01 3.0066528992849615e+00 9.8188354315650965e+00 2.2011010074633251e+01 0 0 0
3982 1 3 3.6202837989770215e-01 3.1576288346307204e+00 1.0293186639191525e+01 2.4755614267790317e+01 1 1 0
13047 2 3 2.6454157405744494e-01 3.9593057117942876e+00 1.1012194289541752e+01 2.3228422093694174e+01 0 0 0
13046 2 2 -6.6092966881685222e-01 4.4254133032006981e+00 1.1834050872736995e+01 2.2990638852420858e+01 0 0 0
1657 1 2 -5.3382173582729064e-01 3.0867731298525620e+00 7.3189583442708779e+00 2.1724039496656591e+01 1 1 0
11893 2 3 3.4524056646685702e-01 7.1527591066396443e+00 1.2561705818334278e+01 2.3037077207194258e+01 0 0 0
3888 1 2 -5.1350431851539846e-01 3.3701019287222813e+00 1.2766063368237317e+01 2.5767850140476629e+01 1 1 0
15928 2 3 4.0714739368143887e-01 8.7895218845622072e+00 1.1650495962765373e+01 2.2709303961745324e+01 0 0 0
15926 2 2 -6.5530398550656788e-01 8.6662505823046185e+00 1.2529325006504124e+01 2.2416613040848571e+01 0 0 0
11892 2 3 3.4986822059515282e-01 5.9782407999342526e+00 1.1574461061620234e+01 2.3613864981883935e+01 0 0 0
1630 1 1 1.2257476437860947e-01 1.2032392054530071e+01 7.2228529189599744e+00 1.9120490551008505e+01 1 1 0
13048 2 3 3.9656602167380539e-01 4.0816528313230309e+00 1.2649431708006938e+01 2.3411196828687942e+01 0 0 0
3924 1 2 -5.4738003691840365e-01 5.2002616646848550e+00 1.1287967817734238e+01 2.6366380406033631e+01 1 1 0
11731 2 3 3.6684391849588138e-01 4.2807208200065450e+00 7.9647879768766092e+00 1.6645265985066285e+01 0 0 0
15927 2 3 3.0973523617747079e-01 8.5024845229495707e+00 1.2422241672032611e+01 2.1456752940714626e+01 0 0 0
14779 2 3 3.7961990772817250e-01 7.3520983096562293e+00 1.1560150646130733e+01 1.6542327536135502e+01 1 0 0
1509 1 1 -7.6719526351829326e-02 2.6186570196482499e+00 8.3020226488226108e+00 1.8496169983132148e+01 1 1 0
12282 2 3 4.2574274585887134e-01 8.0927811619376389e+00 1.1832248224539413e+01 2.5811093995630756e+01 0 0 0
12911 2 2 -6.2272511198645331e-01 1.1874513101876630e+01 1.3053477330054672e+01 2.2540677100710145e+01 0 0 0
12283 2 3 3.9767176170541441e-01 6.5764754172022029e+00 1.2268552991278197e+01 2.6389786774550597e+01 0 0 0
12281 2 2 -6.5880902607883263e-01 7.5655311282813429e+00 1.2340389078950331e+01 2.6482208849042145e+01 0 0 0
1658 1 3 4.7207529684480565e-01 2.7093516997950422e+00 8.2009422349231897e+00 2.2123546197452807e+01 1 1 0
14782 2 3 4.0881321023266920e-01 3.5339240346455143e+00 1.3002736078892177e+01 2.0964954761172784e+01 0 0 0
971 1 3 4.2037684911079576e-01 9.4387560526258163e+00 1.3094020909974070e+01 1.6337505990206449e+01 0 1 0
16018 2 3 3.3716935844530116e-01 1.1882308782583662e+01 1.6231371405424010e+01 2.3123287325464503e+01 0 0 0
3887 1 3 4.3207544750607807e-01 7.8389790994263047e+00 1.4037000144467971e+01 2.6560917412162457e+01 1 1 0
1647 1 2 -6.7456703576369070e-01 1.0272226311802244e+01 1.4681102212360219e+01 2.3494135018561270e+01 1 1 0
13504 2 3 3.9991934275177027e-01 7.7312944388199893e+00 1.5579031882008801e+01 1.6517585002594174e+01 0 0 0
1465 1 1 2.8715501270440141e-01 5.8361800290276387e+00 1.8133069446170335e+01 1.8350108680054465e+01 1 0 0
3731 1 2 -5.1071367823853764e-01 8.3626209909147917e+00 1.9547438338552915e+01 2.5942317753523088e+01 1 1 0
1801 1 3 4.3385856787518506e-01 3.5667006273301207e+00 1.8343218335775482e+01 1.6034785425320411e+01 1 0 0
14780 2 2 -6.5145656309594624e-01 2.7226251972532007e+00 1.3222192083390032e+01 2.0459675285849762e+01 0 0 0
12913 2 3 4.3737667105661254e-01 1.1087736983821065e+01 1.3198941247227102e+01 2.3127587171107965e+01 0 0 0
3998 1 3 1.4165136956668659e-01 3.8736251187995210e+00 1.5660850211667693e+01 2.6716388194914568e+01 1 1 0
13566 2 3 3.3813223750334387e-01 5.7695637744530828e+00 1.8754639826615556e+01 2.3336418310904200e+01 0 0 0
14587 2 3 3.4896123719171362e-01 4.3038512230667632e+00 1.4673344250808412e+01 2.2784693322782307e+01 0 0 0
3935 1 3 4.8128846990709634e-01 8.0430942779229486e+00 1.6277859191510490e+01 2.6447772664800301e+01 1 1 0
1517 1 1 1.3298595726439646e-01 2.6674151513041613e+00 1.3492121269540551e+01 1.7312257360446253e+01 1 1 0
3997 1 1 3.3489418710980068e-01 5.4259074531997777e+00 1.7157623053399504e+01 2.6440476164094743e+01 1 1 0
4000 1 2 -4.9781238215314921e-01 4.4068456802912221e+00 1.8100308545569778e+01 2.6215711848650152e+01 1 1 0
13309 2 3 3.3475628423927400e-01 7.1785192493070005e+00 1.4099326185522770e+01 2.1702674653167165e+01 0 0 0
1525 1 2 -3.2197221701844175e-01 7.2167968052357825e+00 1.8393778289712035e+01 1.8519545677447034e+01 1 0 0
3733 1 3 4.0109410220772163e-01 8.7777725231581556e+00 1.8670182352940504e+01 2.5904435798813598e+01 1 1 0
16363 2 3 2.7637078974903068e-01 3.3084591627431230e+00 1.8760775114242580e+01 2.3189907491750674e+01 0 0 0
15187 2 3 5.3602865294730351e-01 9.9108547916782221e+00 1.7408569576449501e+01 2.4515094896149026e+01 0 0 0
1579 1 1 1.1889173490396163e-01 9.7336976790648855e+00 1.3377181037886276e+01 1.9214443578804460e+01 1 1 0
13502 2 2 -6.2179305036282262e-01 8.6502920212569112e+00 1.5322306524798922e+01 1.6675537097407215e+01 0 0 0
13503 2 3 4.2700144903071696e-01 9.3202693375592354e+00 1.6045259749561531e+01 1.6490675452090610e+01 0 0 0
13028 2 2 -5.6965751441117374e-01 4.4581791634355863e+00 1.7385723539994277e+01 2.0798371210154542e+01 0 0 0
1738 1 1 3.3232405771848639e-01 7.7753788386047447e+00 1.8864258559356795e+01 2.1461167428400525e+01 1 0 0
1588 1 1 -2.5931911566238246e-02 1.1843233395959466e+01 1.9440305257087871e+01 1.9664243137269423e+01 1 0 0
3051 1 2 -4.7702010533285966e-01 1.0542393575145491e+01 1.8047008767707034e+01 2.5240434324612611e+01 0 1 0
4001 1 3 3.6434250557660797e-01 4.0815645859725951e+00 1.8355612103206386e+01 2.5237205366169896e+01 1 1 0
1018 1 2 -4.0748998886672200e-01 9.8758505688996152e+00 1.7985369341467610e+01 1.6818440461775449e+01 0 0 0
15185 2 2 -6.8828599754392150e-01 9.1705827009596721e+00 1.6857731244343686e+01 2.3908426471191934e+01 0 0 0
1799 1 3 4.4147814079683795e-01 1.1192155992156446e+01 1.7198564443154332e+01 1.7434865985903336e+01 1 0 0
1461 1 1 1.2157095428760348e-02 5.5868384728369804e+00 1.5704218704836666e+01 1.8248680769229548e+01 1 0 0
1648 1 3 3.7729038198249804e-01 1.0041514313596238e+01 1.5284919566535578e+01 2.2686897916233171e+01 1 1 0
3999 1 2 -4.3403001233848026e-01 6.5273681700559516e+00 1.6949235237337376e+01 2.5803435752584008e+01 1 1 0
1460 1 1 -1.2828016537188913e-02 2.9520341849210769e+00 1.5889190756476390e+01 1.8082528634297201e+01 1 0 0
13030 2 3 3.5153023557048824e-01 3.4841604353592461e+00 1.7271229537229758e+01 2.0945056175832839e+01 0 0 0
15189 2 3 4.0712877354003629e-01 6.0444432664935537e+00 1.4887490776506272e+01 2.5610702213069427e+01 0 0 0
10262 2 2 -6.6828903472785539e-01 4.8685315145352126e+00 1.6748766992362082e+01 2.3478454335946111e+01 0 0 0
1524 1 1 -3.4116110253026355e-02 8.8869263690323717e+00 1.6983938591501659e+01 1.9569166294063475e+01 1 0 0
13565 2 2 -6.4602242655075903e-01 5.9963119068732000e+00 1.9399870260684079e+01 2.4004175183747591e+01 0 0 0
2073 1 1 1.4772809822439853e-01 1.1931244408929405e+01 1.7997512373519836e+01 2.5221353208826770e+01 0 1 0
15188 2 2 -6.6473535851408039e-01 5.3501312494115085e+00 1.4385757470249780e+01 2.4987551628941493e+01 0 0 0
3050 1 3 4.5275283816910428e-01 1.1557250033475716e+01 1.8406075723561514e+01 2.2829774114308542e+01 0 1 0
1650 1 2 -3.8519270000058914e-01 1.0331630858463225e+01 1.6172236235306521e+01 2.1291050579192063e+01 1 0 0
1526 1 1 7.6658839477646762e-02 9.6231927602859422e+00 1.8218955748215809e+01 1.9779354260388025e+01 1 0 0
3889 1 3 3.3255229912602918e-01 4.1430036959322374e+00 1.3404856497767872e+01 2.5628177772014233e+01 1 1 0
1519 1 1 8.2966003695121408e-04 7.5231630355909473e+00 1.4518684236841478e+01 1.9053235812909254e+01 1 1 0
13308 2 3 3.3974226549993630e-01 7.3872972747933279e+00 1.5689890541966529e+01 2.1899110258688012e+01 0 0 0
1578 1 1 1.1378037756120675e-01 6.6281204916423890e+00 1.3356554549772103e+01 1.9276954287850764e+01 1 1 0
1466 1 1 1.1394607083818650e-01 3.6505082140315355e+00 1.9516149932449512e+01 1.8432571074610209e+01 1 0 0
1463 1 1 -6.2984255256056360e-02 5.0714351295849989e+00 1.7044474661392972e+01 1.8141785621232234e+01 1 0 0
1459 1 1 6.1980672349911201e-03 4.9305819356531266e+00 1.4448082043653370e+01 1.7907736278388121e+01 1 1 0
1462 1 1 1.5162978713701883e-01 3.5937352019093565e+00 1.7146396424387447e+01 1.7624099527728990e+01 1 0 0
10263 2 3 3.4164690896402267e-01 4.2066463426682983e+00 1.6490650471583454e+01 2.4132284470235600e+01 0 0 0
1640 1 1 -3.7076275924655417e-03 1.1146868588520551e+01 1.3338817128728024e+01 1.9689321019809771e+01 1 1 0
1800 1 2 -4.9718739643888665e-01 3.9316769186616836e+00 1.7446499072279181e+01 1.6186037832383978e+01 1 0 0
13307 2 2 -6.3498547648197312e-01 6.9335450430502190e+00 1.4916506674674739e+01 2.2293945304011036e+01 0 0 0
16361 2 2 -6.7611621124602883e-01 2.9173295332680547e+00 1.8511578122639914e+01 2.4061235720216025e+01 0 0 0
1467 1 2 -3.3171270808680919e-01 5.1014289126451491e+00 1.9405908182921806e+01 1.8277157601393565e+01 1 0 0
3048 1 2 -5.1088893019976422e-01 1.0792086022533809e+01 1.8990543826633175e+01 2.2851924900296101e+01 0 1 0
13567 2 3 3.4852402436669150e-01 6.9813666034456636e+00 1.9363070728445560e+01 2.4011635402713306e+01 0 0 0
2069 1 1 -1.1313196735387585e-01 1.1692449672502105e+01 1.5489095616040240e+01 2.5800884190093694e+01 0 1 0
1580 1 1 3.5486198910831147e-03 1.1876259453667849e+01 1.4485727640357631e+01 2.0052915522368359e+01 1 1 0
1458 1 1 1.1184069783162333e-02 3.5135770367139991e+00 1.4629919684334903e+01 1.7616550968695734e+01 1 0 0
1521 1 1 -5.4740286017136361e-02 6.9556174036432727e+00 1.5783438924869758e+01 1.8731992589146387e+01 1 0 0
1586 1 1 -1.8651410645381311e-02 1.1039116909454911e+01 1.8275296661294167e+01 1.9709774075116059e+01 1 0 0
3052 1 3 1.3839820327390392e-01 1.0617772805360543e+01 1.5417252717691728e+01 2.5693528148263393e+01 0 1 0
13029 2 3 3.6309876655607320e-01 4.8072698862492267e+00 1.7523466763402915e+01 2.1681258731683034e+01 0 0 0
1739 1 2 -5.3008824752554784e-01 7.8549707667433237e+00 1.7640930106623760e+01 2.2187438206037452e+01 1 0 0
13089 2 3 3.6497007749236909e-01 7.6320927998988806e+00 1.4513990396811778e+01 2.3781119817543573e+01 0 0 0
1464 1 1 -4.5658269181322757e-02 2.8474423187575937e+00 1.8396114027023014e+01 1.8247558772836548e+01 1 0 0
1518 1 1 -1.0996134701734462e-02 5.3752496447473153e+00 1.3182328656617022e+01 1.8412531255712207e+01 1 1 0
1520 1 1 -5.5794825371338362e-02 8.8640823388597578e+00 1.4522159102464844e+01 1.9586993715073973e+01 1 1 0
1523 1 1 1.2075522591493992e-01 7.6254675568127563e+00 1.7024959751451718e+01 1.8877317682389432e+01 1 0 0
13090 2 3 5.2888143201435966e-01 9.3298983055943179e+00 1.4617102841061232e+01 2.4023886320524735e+01 0 0 0
14585 2 2 -6.6466515277802585e-01 3.5885700861059133e+00 1.4018407025591909e+01 2.2655689448293703e+01 0 0 0
1522 1 1 7.4868376462942601e-02 9.3954734700818854e+00 1.5772735247075701e+01 2.0165898573031274e+01 1 0 0
1527 1 1 -2.8445915007868244e-01 8.8806381652085271e+00 1.9379761761098461e+01 2.0406984789254032e+01 1 0 0
10264 2 3 3.7395306325315936e-01 5.7234521672836172e+00 1.6457768260907745e+01 2.3836936309080944e+01 0 0 0
14586 2 3 2.8950868042497713e-01 2.7021338700045052e+00 1.4442218129566207e+01 2.2777761769684766e+01 0 0 0
1584 1 1 1.3055609078940195e-01 1.1771675977815608e+01 1.6996510731429147e+01 1.9467039395870422e+01 1 0 0
1741 1 3 4.5607776052458443e-01 8.7916794935581581e+00 1.7313592973185362e+01 2.2373574694249093e+01 1 0 0
15186 2 3 3.7743696453787656e-01 8.4897650376285458e+00 1.6353793133103643e+01 2.4471816761155495e+01 0 0 0
1582 1 1 1.1994200337621723e-01 1.1192433793800809e+01 1.5785336900889607e+01 2.0218201904355411e+01 1 0 0
1798 1 2 -4.4320124922888665e-01 1.1718333125502292e+01 1.6640831931913308e+01 1.8078200115146728e+01 1 0 0
15190 2 3 3.3391301657783501e-01 5.7341595613591778e+00 1.3537990531595812e+01 2.4635440971361778e+01 0 0 0
13088 2 2 -6.6222498178962363e-01 8.3139961376743159e+00 1.4742279152346718e+01 2.4518297108872240e+01 0 0 0
3505 1 1 -1.1149727535047511e-01 4.8863894690888010e+00 1.5998066921135341e+00 2.7059848670301164e+01 1 1 0
3564 1 1 1.2030652515968246e-01 9.2307238989002798e+00 7.8273930765252020e-01 2.9494541219312417e+01 1 1 0
3565 1 1 1.4083365209907847e-01 7.4234887111544987e+00 1.7630266778994461e+00 2.7952831840184704e+01 1 1 0
3566 1 1 -3.6657548879733624e-02 8.6413804472606088e+00 1.9201202290209025e+00 2.8698677634245694e+01 1 1 0
3567 1 2 -3.6664808213335404e-01 7.0336135143343403e+00 2.9457090523511793e+00 2.7179107593577175e+01 1 1 0
3568 1 1 5.7257075577015454e-02 9.4334836963604385e+00 3.1248916142138410e+00 2.8616062747576365e+01 1 1 0
3569 1 1 -2.5373271079156223e-01 8.6960860740423858e+00 4.3902147363279411e+00 2.9103743096861958e+01 1 1 0
3624 1 1 7.5511186427679025e-02 1.0971625665990214e+01 7.2319809323599527e-01 2.9288164999059322e+01 1 1 0