# System description ###############################
10210 atoms

3 atom types

0.0000000 82.760000  xlo xhi
0.0000000 39.380000  ylo yhi
0.0000000 70.000000  zlo zhi

Masses

1 12.010700 # C
2 15.999400 # O
3 1.007940  # H

Atoms # full

1 1 1 0.014288 12.631239 55.574460 -0.818286 # C
2 1 1 0.020246 14.057991 55.682549 -0.503041 # C
3 1 1 0.196572 11.836262 17.507122 -0.933172 # C
4 1 1 -0.041688 14.744521 17.506510 -0.585149 # C
5 1 1 -0.035193 12.585537 18.738975 -0.653923 # C
6 1 1 0.125951 14.022253 18.731171 -1.188196 # C
7 1 1 -0.006635 12.106211 19.814822 0.097556 # C
8 1 1 -0.043018 14.817101 20.002986 -0.808752 # C
9 1 1 -0.012110 12.751977 21.088557 -0.043854 # C
10 1 1 -0.002978 14.144748 21.174305 -0.393118 # C
11 1 1 0.180203 11.994650 22.341797 0.077898 # C
12 1 1 -0.000160 14.883166 22.421301 -0.386276 # C
13 1 1 0.001144 12.724653 23.654901 0.032312 # C
14 1 1 0.002290 14.165466 23.644977 -0.129089 # C
15 1 1 -0.113961 11.999433 24.834471 0.157313 # C
16 1 1 0.017606 14.874637 24.889978 -0.119406 # C
17 1 1 0.053069 12.652310 26.089166 0.105427 # C
18 1 1 0.007710 14.119836 26.101441 -0.035131 # C
19 1 1 -0.097806 11.910533 27.326988 0.227559 # C
20 1 1 0.011832 14.829932 27.337685 -0.021840 # C
21 1 1 0.162453 12.640268 28.490677 0.441111 # C
22 1 1 -0.024788 14.055400 28.499450 0.332023 # C
23 1 2 -0.357556 11.896394 29.671203 0.772387 # O
24 1 1 0.017603 14.798846 29.686483 0.631456 # C
25 1 1 0.156719 12.653828 30.928111 0.822312 # C
26 1 1 -0.013621 14.048507 30.884189 0.741209 # C
27 1 1 -0.103749 11.978695 32.155232 0.867783 # C
28 1 1 0.099274 14.757904 32.205227 0.452796 # C
29 1 1 0.000997 12.692643 33.366336 0.937860 # C
30 1 1 0.098293 14.106924 33.367806 1.111942 # C
31 1 1 0.200685 12.055098 34.732584 0.788634 # C
32 1 1 0.103948 14.969769 34.765258 0.738751 # C
33 1 1 0.001512 12.782405 35.831978 0.130612 # C
34 1 1 0.109207 14.209720 35.721497 -0.155205 # C
35 1 1 -0.014278 12.070134 36.933545 -0.387986 # C
36 1 1 -0.031959 14.910643 37.050807 -0.136152 # C
37 1 1 -0.021070 12.723168 38.238810 -0.470037 # C
38 1 1 -0.012863 14.157230 38.188544 -0.482561 # C
39 1 1 0.148407 12.077622 39.509359 -0.428091 # C
40 1 1 0.094744 14.953294 39.358592 -0.988270 # C
41 1 1 -0.019191 12.682643 40.799520 -0.600914 # C
42 1 1 0.122972 14.050447 40.853825 -1.163438 # C
43 1 1 -0.073248 12.028803 42.033541 -0.326130 # C
44 1 1 -0.036335 14.804544 42.035940 -0.985883 # C
45 1 1 -0.007667 12.672421 43.250418 -0.571734 # C
46 1 1 0.125718 14.072572 43.287065 -1.160343 # C
47 1 1 0.135800 12.028185 44.489050 -0.315951 # C
48 1 1 0.115363 14.962507 44.784964 -0.923599 # C
49 1 1 -0.023210 12.684660 45.738934 -0.154412 # C
50 1 1 0.004607 14.142552 45.794049 -0.255089 # C
51 1 1 -0.061611 12.024455 46.965679 0.210087 # C
52 1 1 -0.022252 14.801549 47.025334 0.012586 # C
53 1 1 0.032125 12.677412 48.211333 -0.089557 # C
54 1 1 0.115270 14.109554 48.174953 -0.458201 # C
55 1 1 -0.094478 12.017711 49.471873 -0.084911 # C
56 1 1 0.104677 14.985852 49.656054 -0.335774 # C
57 1 1 0.076552 12.734135 50.704113 -0.003772 # C
58 1 1 -0.044665 14.170075 50.742928 0.170561 # C
59 1 1 -0.059620 12.083043 51.994162 0.047245 # C
60 1 1 0.106465 14.790962 51.903580 0.790061 # C
61 1 1 0.140114 12.775020 53.115257 -0.633596 # C
62 1 1 0.094872 13.910707 53.411231 0.493576 # C
63 1 1 -0.091814 11.980026 54.395827 -0.872099 # C
64 1 1 -0.033003 14.736028 54.528349 0.069025 # C
65 1 1 0.027115 16.831229 16.450017 0.192063 # C
66 1 1 0.030016 18.219752 16.565617 0.548090 # C
67 1 1 0.110793 16.086389 17.699457 -0.104142 # C
68 1 1 -0.057263 18.948561 17.747752 0.120922 # C
69 1 1 0.098761 16.807507 18.640006 -1.098810 # C
70 1 1 0.243043 18.502810 18.520701 -0.987585 # C
71 1 1 -0.019677 16.196592 20.018056 -1.076234 # C
72 1 2 -0.335372 19.172539 19.847469 -1.325515 # O
73 1 1 0.066877 16.792694 21.284564 -1.349923 # C
74 1 1 -0.293640 17.700629 21.416805 -2.544637 # C
75 1 1 -0.029459 16.290158 22.512144 -0.762731 # C
76 1 1 0.103012 16.953447 23.723765 -0.602233 # C
77 1 2 -0.353477 18.339077 23.776191 -0.905534 # O
78 1 1 0.087918 16.365230 24.901240 -0.056605 # C
79 1 1 0.271371 19.114902 24.971874 -0.704778 # C
80 1 1 0.015169 16.984955 26.171414 -0.463407 # C
81 1 1 -0.056710 18.406764 26.164943 -0.597604 # C
82 1 1 0.131952 16.258255 27.447471 -0.442294 # C
83 1 1 0.128037 19.107891 27.518352 -0.550839 # C
84 1 1 -0.066557 16.967865 28.475131 0.330957 # C
85 1 1 0.100273 18.392187 28.349736 0.521072 # C
86 1 1 0.129994 16.259827 29.580709 0.919448 # C
87 1 1 0.076472 19.311891 29.816319 0.893056 # C
88 1 1 0.125591 17.132428 31.157001 0.934988 # C
89 1 1 0.039026 18.620588 31.132673 0.321795 # C
90 1 1 0.084766 16.470546 32.274867 0.306763 # C
91 1 1 0.278529 19.296808 32.408415 0.387623 # C
92 1 1 0.152514 17.096151 33.518872 0.395799 # C
93 1 2 -0.315744 18.550188 33.586722 0.277637 # O
94 1 1 0.000548 16.460176 34.723027 0.409817 # C
95 1 1 -0.271621 19.582010 35.565789 1.265134 # C
96 1 1 0.007235 17.159768 35.975350 0.242308 # C
97 1 1 0.074894 18.595308 36.154937 0.258276 # C
98 1 1 -0.030914 16.331742 37.139991 0.058648 # C
99 1 1 -0.038728 19.228415 37.202571 -0.439181 # C
100 1 1 0.142409 16.994932 38.447694 0.144396 # C
101 1 1 0.137651 18.337291 38.407707 -0.828563 # C
102 1 1 -0.084983 16.235285 39.577689 -0.303480 # C
103 1 1 -0.018090 19.036641 39.734916 -0.528613 # C
104 1 1 0.109728 16.838721 40.889922 -0.137580 # C
105 1 1 -0.046005 18.307338 40.902017 -0.179858 # C
106 1 1 0.124073 16.260226 41.974404 -1.058768 # C
107 1 1 0.132103 18.992780 42.052459 0.416460 # C
108 1 1 0.145214 17.121348 43.535298 -0.941996 # C
109 1 1 0.106480 18.563895 43.422583 -0.305671 # C
110 1 1 -0.062989 16.366000 44.709269 -0.596390 # C
111 1 1 0.144445 19.024883 44.569076 0.584991 # C
112 1 1 0.161643 17.103461 45.944653 -0.391897 # C
113 1 1 -0.034225 18.439808 45.867454 0.202403 # C
114 1 1 0.124854 16.214648 47.014603 0.511978 # C
115 1 1 0.142354 19.056475 47.030061 0.723266 # C
116 1 1 -0.006412 16.996010 48.346191 0.559483 # C
117 1 1 0.011793 18.328092 48.196702 1.053882 # C
118 1 1 -0.043444 16.395181 49.596215 0.293924 # C
119 1 1 -0.243268 18.835862 49.017086 2.229416 # C
120 1 1 0.111579 17.004025 50.874978 0.390032 # C
121 1 2 -0.324503 18.458400 50.948495 0.425522 # O
122 1 1 -0.099369 16.235927 52.028375 0.421475 # C
123 1 1 0.079015 18.936544 52.225834 0.853579 # C
124 1 1 0.125463 16.920424 53.307605 0.208038 # C
125 1 1 0.075024 18.108597 53.366714 1.217281 # C
126 1 1 0.013814 16.156917 54.575854 0.243552 # C
127 1 1 0.139977 18.883072 54.922037 1.323155 # C
128 1 1 0.145258 21.099453 16.624184 1.365371 # C
129 1 1 -0.035545 22.511768 16.640344 1.016952 # C
130 1 1 0.158616 20.149061 18.195996 0.807188 # C
131 1 1 0.140056 23.281296 17.873137 1.097202 # C
132 1 1 -0.085318 20.965247 19.243714 0.144591 # C
133 1 1 0.138232 22.381244 19.371433 0.547521 # C
134 1 1 0.316316 20.405878 20.105326 -0.761281 # C
135 1 1 0.062479 23.130093 20.036514 -0.629184 # C
136 1 2 -0.324446 21.114799 21.342477 -0.945350 # O
137 1 1 0.143443 22.526681 21.311166 -0.807817 # C
138 1 1 -0.024666 23.151482 22.532196 -0.497258 # C
139 1 1 -0.268284 21.236815 23.196028 0.918253 # C
140 1 1 0.053479 22.491187 23.580050 0.165981 # C
141 1 2 -0.320966 20.501380 25.010239 -0.649475 # O
142 1 1 0.096395 23.194091 24.879830 0.414612 # C
143 1 1 0.142426 21.245388 26.275230 -0.265403 # C
144 1 1 -0.066074 22.568607 26.173815 0.133573 # C
145 1 1 -0.084278 20.539578 27.445608 -0.323557 # C
146 1 1 0.142326 23.403699 27.367446 0.455895 # C
147 1 1 0.128306 21.366740 28.729519 -0.289386 # C
148 1 1 -0.086167 22.777620 28.617704 0.109678 # C
149 1 1 0.092727 20.757526 29.825847 0.888268 # C
150 1 1 0.097975 23.432381 29.858497 0.423915 # C
151 1 1 0.139710 21.314607 31.083126 0.610933 # C
152 1 1 -0.037588 22.652176 31.225168 0.383621 # C
153 1 2 -0.312719 20.682112 32.405917 0.547823 # O
154 1 1 0.157861 23.332632 32.428169 0.188442 # C
155 1 2 -0.259300 22.692181 33.671276 0.368984 # O
156 1 1 0.124348 23.444107 34.886085 -0.059209 # C
157 1 2 -0.274232 21.273866 35.957440 -0.626440 # O
158 1 1 0.109604 22.749231 35.946910 -0.635960 # C
159 1 1 0.159753 20.611555 37.215711 -0.712337 # C
160 1 1 0.124098 23.534050 36.965348 -1.252808 # C
161 1 1 -0.049219 21.152178 38.521722 -0.948028 # C
162 1 1 0.156345 22.431467 38.797005 -1.587895 # C
163 1 1 -0.009187 20.419814 39.672923 -0.447450 # C
164 1 1 -0.077828 23.116253 40.045384 -1.394551 # C
165 1 1 0.123495 21.236501 40.777772 0.188763 # C
166 1 1 0.153297 22.422472 41.224795 -0.897434 # C
167 1 1 -0.034949 20.442787 42.040555 0.448831 # C
168 1 1 -0.057521 23.252811 42.181734 -0.189718 # C
169 1 1 -0.008520 21.148398 43.223985 0.618806 # C
170 1 1 0.138793 22.612209 43.139644 0.649156 # C
171 1 1 0.119241 20.539406 44.572924 0.490628 # C
172 1 1 0.112632 23.599076 45.030023 0.807402 # C
173 1 1 0.225050 21.330690 46.138138 0.737520 # C
174 1 1 0.077561 22.775545 46.217961 0.894459 # C
175 1 2 -0.315210 20.387156 47.137423 1.255906 # O
176 1 2 -0.317674 23.313715 47.498948 0.722502 # O
177 1 1 -0.272882 21.940702 48.875404 -0.872554 # C
178 1 1 0.034909 22.855949 49.934726 -0.278057 # C
179 1 2 -0.348457 20.896308 51.002814 0.491635 # O
180 1 1 0.083780 22.314525 51.033692 0.335696 # C
181 1 1 0.100643 20.283967 52.299068 0.806829 # C
182 1 1 0.091799 23.091567 52.168561 0.729546 # C
183 1 1 -0.027994 20.928637 53.538616 0.878275 # C
184 1 1 0.107036 22.343719 53.499280 0.339177 # C
185 1 1 -0.023736 20.317062 54.795198 1.150606 # C
186 1 1 0.096845 23.158301 54.871518 0.479654 # C
187 1 1 0.020730 25.344311 16.566882 0.816876 # C
188 1 1 0.003093 26.716050 16.449603 0.804692 # C
189 1 1 -0.024668 24.671938 17.782390 0.586786 # C
190 1 1 0.083003 27.496380 17.648043 0.267959 # C
191 1 1 0.011949 25.317135 18.951726 0.042050 # C
192 1 1 0.087883 26.769166 19.027171 0.219595 # C
193 1 1 -0.008410 24.616835 20.102142 -0.438727 # C
194 1 1 0.149066 27.509158 19.727083 -0.881904 # C
195 1 1 -0.053382 25.264973 21.274045 -0.883475 # C
196 1 1 0.113335 26.603696 21.245344 -1.483091 # C
197 1 1 0.133974 24.576713 22.562630 -1.063907 # C
198 1 1 -0.014435 27.386684 22.484490 -1.467540 # C
199 1 1 0.007946 25.394141 23.724793 -0.688457 # C
200 1 1 -0.042690 26.789985 23.745583 -1.074784 # C
201 1 1 0.095134 24.913309 24.895258 -0.010477 # C
202 1 1 0.293930 27.544630 24.925665 -1.071325 # C
203 1 1 0.124720 25.450135 26.131892 -0.373991 # C
204 1 2 -0.315153 26.791805 26.117687 -0.929255 # O
205 1 1 -0.023384 24.856616 27.318414 -0.036724 # C
206 1 1 -0.245874 27.710340 27.684526 1.160199 # C
207 1 1 -0.001275 25.653853 28.523246 -0.063924 # C
208 1 1 0.070496 27.053050 28.634360 0.191002 # C
209 1 1 0.087114 25.061697 29.848812 0.109527 # C
210 1 1 -0.023730 27.769738 29.820572 -0.203197 # C
211 1 1 0.092196 25.573227 30.942391 -0.745813 # C
212 1 1 -0.014548 27.031184 31.054140 -0.524404 # C
213 1 1 0.038242 24.671983 32.474188 -0.404544 # C
214 1 1 -0.009667 27.677270 32.298014 -0.480993 # C
215 1 1 0.126401 25.519209 33.580947 0.146699 # C
216 1 1 0.133746 26.912643 33.629604 -0.608978 # C
217 1 1 -0.008687 24.844605 34.866582 0.040439 # C
218 1 1 0.034634 27.670025 34.875304 -0.053077 # C
219 1 1 0.134189 25.569089 36.178023 -0.006959 # C
220 1 1 -0.044668 27.005735 36.113532 -0.163565 # C
221 1 1 -0.033167 24.932624 37.116652 -0.983625 # C
222 1 1 0.233603 27.697221 37.416134 -0.416859 # C
223 1 1 0.165305 25.607509 38.259902 -1.505496 # C
224 1 1 -0.025104 26.890092 38.572653 -0.984523 # C
225 1 1 0.150987 24.531882 40.121814 -1.669666 # C
226 1 1 0.069778 27.452498 39.867423 -1.033432 # C
227 1 1 -0.057765 25.346971 41.134328 -1.074123 # C
228 1 1 0.021080 26.775153 41.129878 -1.137548 # C
229 1 1 0.129677 24.714531 42.108373 -0.168412 # C
230 1 1 0.100611 27.514566 42.396029 -0.905423 # C
231 1 1 0.123281 25.572641 43.769502 -0.138772 # C
232 1 1 -0.038976 26.796287 43.688557 -0.940229 # C
233 1 1 -0.037099 24.779349 45.004224 -0.010343 # C
234 1 1 -0.009299 27.406982 44.875851 -1.323858 # C
235 1 1 0.116432 25.106089 46.197764 -0.713041 # C
236 1 1 0.150560 26.708834 46.194248 -1.368812 # C
237 1 1 0.181846 24.717705 47.450619 0.026447 # C
238 1 1 -0.031178 27.539897 47.332936 -0.913906 # C
239 1 1 0.119707 24.996099 48.669638 -0.798484 # C
240 1 1 0.162609 27.108367 48.670868 -0.992566 # C
241 1 1 -0.024071 24.269078 49.895954 -0.553080 # C
242 1 1 -0.056091 27.814905 49.762601 -0.395769 # C
243 1 1 0.152867 25.010347 51.143906 -0.573695 # C
244 1 1 0.150212 27.161234 51.042892 -0.437749 # C
245 1 1 -0.053808 24.451924 52.228613 0.136993 # C
246 1 1 -0.029169 27.658997 52.158031 0.334317 # C
247 1 1 0.123805 25.176674 53.480016 0.151043 # C
248 1 1 0.108682 26.979049 53.488526 0.286551 # C
249 1 1 0.097784 24.530653 54.636320 1.070445 # C
250 1 1 -0.034781 27.466881 54.623921 1.061200 # C
251 1 1 0.140615 29.428459 16.501288 1.929918 # C
252 1 1 -0.030819 30.867175 16.461313 1.659254 # C
253 1 1 0.075283 28.694599 18.001730 1.270321 # C
254 1 1 0.146528 31.573968 17.727463 1.776938 # C
255 1 1 -0.025777 29.450435 19.092413 0.665062 # C
256 1 1 0.144471 30.738837 19.408730 1.248708 # C
257 1 1 -0.001853 28.932237 19.773735 -0.479272 # C
258 1 1 -0.009845 31.511352 20.399130 0.515124 # C
259 1 1 0.122175 29.795924 20.634857 -1.222199 # C
260 1 1 -0.058781 31.048592 21.038359 -0.659997 # C
261 1 1 0.107827 28.781279 22.434708 -1.775632 # C
262 1 1 0.147812 31.796453 22.138117 -1.343656 # C
263 1 1 0.095719 29.602306 23.523540 -1.414578 # C
264 1 1 -0.038241 30.994483 23.465190 -1.354167 # C
265 1 2 -0.333535 28.920191 24.854764 -1.252335 # O
266 1 1 0.068261 31.737807 24.656467 -1.500194 # C
267 1 1 -0.269413 30.992767 25.738968 -2.294829 # C
268 1 2 -0.331416 31.916873 27.296792 -0.483677 # O
269 1 2 -0.345486 29.838147 28.626950 -0.117797 # O
270 1 1 0.240584 31.234471 28.534567 -0.365192 # C
271 1 1 0.138384 29.144428 29.866844 -0.358627 # C
272 1 1 -0.116911 31.913490 29.696891 -0.478412 # C
273 1 1 0.100353 29.792949 31.082553 -0.664122 # C
274 1 1 0.112841 31.218014 30.999233 0.053288 # C
275 1 1 0.024423 29.063889 32.309665 -0.255259 # C
276 1 1 -0.069259 31.828608 32.393389 -0.009371 # C
277 1 1 -0.033109 29.702734 33.467632 0.365716 # C
278 1 1 0.145882 31.095081 33.413223 0.633134 # C
279 1 1 0.047253 28.906288 34.666266 0.591606 # C
280 1 2 -0.365666 31.965648 34.394157 1.272593 # O
281 1 1 -0.243933 29.470834 35.707002 1.553064 # C
282 1 2 -0.368276 28.441247 38.197867 0.759772 # O
283 1 1 0.236377 29.387324 39.104116 0.326734 # C
284 1 2 -0.348039 30.733392 39.270055 0.809115 # O
285 1 1 -0.059019 28.888068 39.921197 -0.660003 # C
286 1 1 0.172827 31.593647 40.192299 0.143307 # C
287 1 1 0.120342 29.729961 40.947625 -1.291912 # C
288 1 1 0.036411 30.995447 41.294047 -0.515866 # C
289 1 1 0.108930 28.789870 42.445848 -1.732388 # C
290 1 1 0.156134 31.882172 42.073778 -1.437228 # C
291 1 1 -0.085167 29.533024 43.689131 -1.699105 # C
292 1 1 0.141064 30.944508 43.751463 -1.946344 # C
293 1 1 0.129608 28.842166 44.979875 -1.629787 # C
294 1 1 -0.097994 31.659153 44.974148 -1.627445 # C
295 1 1 -0.057873 29.562579 46.014554 -0.852564 # C
296 1 1 0.138543 30.948167 46.220242 -1.248343 # C
297 1 1 0.128077 28.766922 47.008517 -0.215545 # C
298 1 1 -0.041744 31.768956 47.102925 -0.284991 # C
299 1 1 0.029128 29.635831 48.263456 0.412257 # C
300 1 1 0.021057 31.106411 47.989134 0.583424 # C
301 1 1 0.086232 29.221630 49.683681 0.039859 # C
302 1 1 -0.300402 31.734760 48.285760 1.919524 # C
303 1 1 0.235726 29.510978 50.677735 1.139437 # C
304 1 2 -0.312478 31.091680 50.961145 1.442881 # O
305 1 1 -0.032162 28.861041 52.005615 1.021685 # C
306 1 1 0.280139 31.658413 52.158856 1.246299 # C
307 1 1 0.127650 29.486901 53.181124 1.701174 # C
308 1 1 0.030968 30.907873 53.323138 1.058155 # C
309 1 1 0.108622 28.648017 54.601524 1.862234 # C
310 1 1 0.029618 31.541458 54.646369 1.335268 # C
311 1 1 -0.025383 33.703473 16.579668 1.357012 # C
312 1 1 -0.032481 35.101408 16.617452 1.644936 # C
313 1 1 0.073400 32.913831 17.796029 1.119412 # C
314 1 1 0.163259 35.818560 17.877790 1.753417 # C
315 1 1 0.129318 33.643862 19.047983 1.530429 # C
316 1 1 -0.043000 35.114364 19.067383 1.439619 # C
317 1 1 0.123258 32.868530 20.637214 1.013044 # C
318 1 1 0.148272 35.718189 20.364274 1.251807 # C
319 1 1 -0.012871 33.745259 21.479593 0.172023 # C
320 1 1 -0.022093 35.162422 21.441339 0.455753 # C
321 1 1 -0.008095 33.152348 22.325177 -0.789047 # C
322 1 1 -0.030571 35.961780 22.508809 -0.063199 # C
323 1 1 0.136281 33.902082 23.483076 -1.284675 # C
324 1 1 0.002890 35.274098 23.575381 -0.693799 # C
325 1 1 -0.040015 33.108785 24.759368 -1.201364 # C
326 1 1 -0.033554 35.949031 24.712383 -1.263372 # C
327 1 1 -0.031754 33.812024 26.012130 -1.135940 # C
328 1 1 0.122155 35.225814 25.923421 -1.646397 # C
329 1 1 0.153150 33.323703 27.242820 -0.779265 # C
330 1 1 0.140040 36.165957 27.540674 -1.556820 # C
331 1 1 0.085257 34.015006 28.443102 -0.492496 # C
332 1 1 -0.064928 35.417513 28.562313 -0.838273 # C
333 1 1 -0.033267 33.289747 29.708928 -0.837792 # C
334 1 1 0.111703 36.053521 29.831520 -0.513682 # C
335 1 1 0.149225 33.997534 30.872960 -1.293741 # C
336 1 1 -0.026156 35.388645 31.021254 -1.086716 # C
337 1 1 0.141856 32.980285 32.679402 -0.796960 # C
338 1 1 0.175582 36.084468 32.272247 -1.337447 # C
339 1 1 -0.093636 33.793246 33.730320 -0.233996 # C
340 1 1 0.128029 35.151922 33.887169 -0.848466 # C
341 1 1 0.285085 33.323898 34.465304 0.848756 # C
342 1 1 -0.067298 35.946702 34.932360 -0.280145 # C
343 1 2 -0.296581 34.291121 35.297458 1.379291 # O
344 1 1 0.229605 35.087172 36.070005 0.234439 # C
345 1 1 -0.258143 32.590700 37.537402 0.604876 # C
346 1 1 -0.022881 35.718797 37.358930 0.634021 # C
347 1 1 0.059225 33.563096 38.694288 0.583563 # C
348 1 1 -0.022359 34.978306 38.537531 0.788528 # C
349 1 1 -0.046122 32.950660 39.933313 0.167999 # C
350 1 1 0.130822 35.688819 39.759906 1.241814 # C
351 1 1 0.110618 33.913312 40.941377 -0.435575 # C
352 1 1 0.132823 34.915212 41.326356 0.620117 # C
353 1 1 -0.033722 33.280083 42.100736 -1.091547 # C
354 1 1 -0.018601 35.734512 42.469656 0.195695 # C
355 1 1 0.175716 34.119943 43.164728 -1.539871 # C
356 1 1 -0.028856 35.377760 43.345063 -0.880571 # C
357 1 1 0.148203 33.056181 45.002462 -1.815303 # C
358 1 1 0.139352 36.191861 44.513532 -1.239731 # C
359 1 1 -0.081377 33.821590 46.095220 -1.218838 # C
360 1 1 0.164683 35.283896 46.187738 -1.361731 # C
361 1 1 0.145286 33.162306 47.027128 -0.415710 # C
362 1 1 -0.119466 35.909294 47.288779 -0.595861 # C
363 1 2 -0.328507 33.880693 48.069526 0.350691 # O
364 1 1 0.261736 35.268857 48.166393 0.228882 # C
365 1 2 -0.336199 36.000175 49.186421 0.898751 # O
366 1 1 -0.257613 35.223606 51.655642 -0.395628 # C
367 1 2 -0.316509 33.057857 52.208580 1.143548 # O
368 1 1 0.052291 35.888731 52.431565 0.707352 # C
369 1 1 0.139641 33.702004 53.503401 1.214658 # C
370 1 1 -0.050950 35.124375 53.529579 1.209768 # C
371 1 1 -0.042530 32.982840 54.693228 1.307696 # C
372 1 1 0.151611 35.765053 54.723038 1.771560 # C
373 1 1 -0.004385 38.470830 16.456456 0.823508 # C
374 1 1 -0.008479 39.697104 16.406483 0.120640 # C
375 1 1 0.159967 37.906084 17.746594 1.189676 # C
376 1 1 0.147408 40.495259 17.693671 0.246075 # C
377 1 1 -0.071683 38.350661 18.940562 0.534596 # C
378 1 1 0.115520 39.488415 18.882438 -0.389949 # C
379 1 1 0.124740 37.811001 20.239201 0.846925 # C
380 1 1 -0.064974 40.272219 20.090616 -0.464011 # C
381 1 1 -0.081411 38.251475 21.400127 0.165732 # C
382 1 1 0.129261 39.718658 21.388399 0.017844 # C
383 1 1 0.147449 37.447423 22.625857 0.066841 # C
384 1 1 -0.019269 40.317919 22.485969 -0.774928 # C
385 1 1 -0.054612 38.041750 23.486001 -1.015421 # C
386 1 1 0.142707 39.409090 23.356961 -1.414391 # C
387 1 1 0.163776 37.328427 24.541330 -1.634792 # C
388 1 1 0.149238 40.523059 25.136956 -1.766948 # C
389 1 1 0.161121 38.381354 26.383850 -1.840001 # C
390 1 1 -0.080480 39.794292 26.346902 -1.570966 # C
391 1 1 -0.045975 37.609550 27.428816 -1.294257 # C
392 1 1 0.131461 40.519001 27.600225 -1.243840 # C
393 1 1 0.131492 38.226113 28.503317 -0.508728 # C
394 1 1 -0.007300 39.675808 28.669558 -0.668364 # C
395 1 1 0.054137 37.508066 29.812424 -0.977459 # C
396 1 1 0.035025 40.280493 29.902851 -0.336083 # C
397 1 1 0.143312 38.302928 31.257095 -1.079137 # C
398 1 1 -0.065433 39.625636 31.213303 -0.409297 # C
399 1 1 -0.088775 37.500733 32.438389 -0.970531 # C
400 1 1 0.267676 40.280256 32.383173 -0.072684 # C
401 1 1 0.215379 38.230486 33.648873 -0.841172 # C
402 1 2 -0.345744 39.686102 33.587134 -0.430013 # O
403 1 1 0.093035 37.332342 35.123387 -0.431971 # C
404 1 1 -0.281371 39.809446 35.129812 1.889911 # C
405 1 1 -0.035875 37.873716 36.114407 0.466787 # C
406 1 1 0.066936 39.244578 36.126493 0.872647 # C
407 1 1 0.130297 37.125838 37.276090 1.011195 # C
408 1 1 -0.090127 40.023964 37.302048 0.690548 # C
409 1 1 -0.047110 37.858078 38.552230 0.814952 # C
410 1 1 0.138906 39.279735 38.617004 0.445293 # C
411 1 1 -0.039791 37.163850 39.724187 1.176704 # C
412 1 1 -0.028804 39.986847 39.741277 1.080789 # C
413 1 1 0.143949 37.886357 40.918752 1.540005 # C
414 1 1 -0.023844 39.312078 40.938113 1.432069 # C
415 1 1 0.151287 36.920156 42.716136 0.953185 # C
416 1 1 0.149740 40.026063 42.201422 1.729355 # C
417 1 1 -0.036943 37.826173 43.730803 0.504901 # C
418 1 1 0.129323 39.105373 43.805035 1.227652 # C
419 1 1 -0.025835 37.457476 44.616866 -0.541822 # C
420 1 1 -0.006102 40.027865 44.827188 0.737583 # C
421 1 1 0.135262 38.295672 45.777016 -0.845350 # C
422 1 1 -0.037306 39.571396 45.844167 -0.133794 # C
423 1 1 0.135698 37.370240 47.364740 -0.771567 # C
424 1 1 0.137274 40.285819 47.125683 -0.251170 # C
425 1 1 0.066193 38.036075 48.177294 0.336179 # C
426 1 1 -0.066793 39.469261 48.285656 0.132123 # C
427 1 1 0.074170 37.393571 49.401640 0.662941 # C
428 1 1 0.138772 40.138407 49.507460 0.589336 # C
429 1 1 0.098443 38.063542 50.596008 0.859354 # C
430 1 1 -0.012624 39.419411 50.753510 0.388028 # C
431 1 1 0.132005 37.295057 52.161624 1.109468 # C
432 1 1 0.120003 40.030854 51.859838 -0.351303 # C
433 1 1 -0.047043 38.205858 53.327376 0.725380 # C
434 1 1 0.122400 39.270462 53.184124 -0.290639 # C
435 1 1 0.147192 37.873273 54.573230 1.268301 # C
436 1 1 0.089916 40.106521 54.680694 -0.644943 # C
437 1 1 -0.013800 42.387919 16.402383 -0.713656 # C
438 1 1 0.013308 43.810633 55.698385 -0.516665 # C
439 1 1 -0.056051 41.773986 17.657051 -0.557668 # C
440 1 1 0.025458 44.502079 17.583880 -0.519662 # C
441 1 1 0.138494 42.401868 18.809742 -1.148474 # C
442 1 1 -0.059622 43.883139 18.870562 -0.765288 # C
443 1 1 -0.028232 41.656646 20.083840 -0.812864 # C
444 1 1 0.296816 44.573070 20.052182 -0.775157 # C
445 1 1 0.145390 42.402184 21.267834 -0.902513 # C
446 1 2 -0.344277 43.853272 21.240453 -1.056692 # O
447 1 1 0.016810 41.768730 22.525839 -0.972224 # C
448 1 1 -0.266647 44.651009 23.278057 -2.498424 # C
449 1 1 0.034391 42.522451 23.752691 -1.147063 # C
450 1 1 0.078221 43.938900 23.959438 -1.330819 # C
451 1 1 -0.016077 41.807541 25.016487 -1.128797 # C
452 1 1 -0.028301 44.600622 25.008933 -0.656284 # C
453 1 1 0.008440 42.414883 26.163430 -0.488309 # C
454 1 1 0.138696 43.760797 26.000986 0.156440 # C
455 1 1 -0.045100 41.757202 27.392055 -0.501015 # C
456 1 1 -0.067331 44.471166 27.263834 0.386735 # C
457 1 1 0.104498 42.343002 28.563726 0.227986 # C
458 1 1 0.148320 43.956459 28.567411 0.019430 # C
459 1 1 0.077579 41.750365 29.956383 -0.273618 # C
460 1 1 -0.043590 44.450782 29.706986 0.748018 # C
461 1 1 0.149608 42.288742 31.008797 0.474330 # C
462 1 1 -0.009351 43.699223 30.968018 0.654435 # C
463 1 2 -0.339736 41.560533 32.222233 0.577283 # O
464 1 1 0.060312 44.402767 32.153165 0.304705 # C
465 1 1 -0.270769 43.552967 32.971810 -0.640238 # C
466 1 2 -0.329372 44.423411 34.867246 0.527748 # O
467 1 2 -0.338707 42.194334 35.980208 0.661033 # O
468 1 1 0.293818 43.584387 36.018743 0.704013 # C
469 1 1 0.133737 41.428254 37.258612 0.758066 # C
470 1 1 -0.071597 44.296086 37.168980 0.967848 # C
471 1 1 -0.065253 42.127091 38.376227 1.161885 # C
472 1 1 0.153278 43.547906 38.375613 1.463511 # C
473 1 1 0.130354 41.368064 39.622303 1.520359 # C
474 1 1 0.114203 44.410019 39.994505 1.137346 # C
475 1 1 0.111585 42.290696 41.198782 1.505166 # C
476 1 1 -0.019045 43.568671 41.175774 0.848191 # C
477 1 1 -0.060719 41.429364 42.346776 1.412622 # C
478 1 1 -0.047805 44.029458 42.339380 0.193711 # C
479 1 1 0.130337 42.174127 43.602148 1.430570 # C
480 1 1 0.250102 43.238341 43.612634 0.270871 # C
481 1 1 0.001964 41.375382 44.831812 1.284871 # C
482 1 2 -0.328484 44.100059 44.895355 0.217272 # O
483 1 1 0.089360 42.021700 46.096250 1.373040 # C
484 1 1 -0.272668 42.977382 46.361392 2.517469 # C
485 1 1 -0.044734 41.598382 47.136561 0.518802 # C
486 1 1 0.166204 42.287312 48.369174 0.348526 # C
487 1 2 -0.312238 43.726842 48.224899 0.544532 # O
488 1 1 -0.051019 41.570592 49.541539 0.111179 # C
489 1 1 0.270779 44.417507 49.450254 0.709792 # C
490 1 1 0.138083 42.200506 50.767383 -0.345121 # C
491 1 1 0.057431 43.830282 50.636484 0.243204 # C
492 1 1 -0.075842 41.497261 51.999105 -0.203411 # C
493 1 1 0.142272 44.311152 52.099649 0.788921 # C
494 1 1 0.134768 42.393096 53.076166 -0.548486 # C
495 1 1 -0.012871 43.659225 53.254293 0.056418 # C
496 1 1 0.091239 41.560701 54.565308 -0.975754 # C
497 1 1 -0.004936 44.388615 54.455010 -0.027447 # C
498 1 1 0.013830 46.558803 55.696270 0.102183 # C
499 1 1 -0.013375 47.983608 55.704557 0.229637 # C
500 1 1 -0.027211 45.925450 17.580028 -0.235735 # C
501 1 1 0.103296 48.631918 17.586771 0.625714 # C
502 1 1 0.158719 46.638082 18.796418 -0.221377 # C
503 1 1 -0.051399 47.970508 18.853850 0.168268 # C
504 1 2 -0.319257 45.968933 20.044264 -0.577586 # O
505 1 1 0.051888 48.771522 20.056614 0.257696 # C
506 1 1 -0.295578 48.131767 21.232251 0.959687 # C
507 1 2 -0.348939 48.756490 22.756549 -0.970489 # O
508 1 2 -0.329171 46.869981 24.248192 -1.331984 # O
509 1 1 0.289242 48.159230 23.984191 -0.788289 # C
510 1 1 0.146524 45.996232 25.199643 -0.622264 # C
511 1 1 -0.111949 48.768881 24.978408 -0.077525 # C
512 1 1 -0.029682 46.656895 26.209058 0.060202 # C
513 1 1 0.158848 48.135633 26.330387 0.003817 # C
514 1 1 0.131776 45.829891 27.144216 0.889551 # C
515 1 1 -0.062392 48.638442 27.221153 1.069017 # C
516 1 1 -0.091156 46.490820 28.397579 1.230186 # C
517 1 1 0.135020 47.871544 28.311530 1.580893 # C
518 1 1 0.133546 45.704763 29.618442 1.456148 # C
519 1 1 0.169263 48.861079 30.215172 1.818890 # C
520 1 1 0.046361 46.622652 31.249297 1.392455 # C
521 1 1 -0.069017 48.088029 31.337278 1.318560 # C
522 1 1 0.073008 45.874047 32.176737 0.358085 # C
523 1 1 0.012657 48.710476 32.506956 0.817544 # C
524 1 1 0.062127 46.496482 33.651225 0.795144 # C
525 1 1 0.096390 47.997852 33.611546 0.188815 # C
526 1 1 0.114080 45.819816 34.918258 0.741573 # C
527 1 1 0.159758 48.598708 34.896463 0.249314 # C
528 1 1 0.105248 46.493244 36.067418 1.140083 # C
529 1 1 -0.057324 47.872585 36.053673 0.406913 # C
530 1 1 -0.034012 45.721613 37.294630 0.944166 # C
531 1 1 0.070883 48.279655 37.327499 -0.094429 # C
532 1 1 0.133255 46.457915 38.571886 1.073221 # C
533 1 1 -0.017655 47.810366 38.529525 0.471142 # C
534 1 1 -0.079235 45.707852 39.738337 0.559748 # C
535 1 1 0.098619 48.504259 39.811426 0.307164 # C
536 1 1 0.146986 46.286947 40.568263 -0.442366 # C
537 1 1 -0.073031 47.708567 40.770121 -0.431830 # C
538 1 1 0.165449 45.202312 42.411168 -0.622094 # C
539 1 1 0.103555 48.285814 41.909639 -1.136666 # C
540 1 1 -0.108679 45.957097 43.651100 -0.636235 # C
541 1 1 0.163753 47.361948 43.560713 -1.145851 # C
542 1 1 0.307060 45.412405 44.846492 -0.204706 # C
543 1 1 -0.108859 48.258182 44.625593 -0.702850 # C
544 1 2 -0.312769 46.204497 46.015288 -0.295697 # O
545 1 1 0.138620 47.649322 45.858804 -0.500825 # C
546 1 1 -0.050148 48.374911 47.052082 -0.651165 # C
547 1 1 -0.275187 46.606792 48.592178 -1.437697 # C
548 1 1 0.078656 47.856319 48.386105 -0.612466 # C
549 1 2 -0.296392 45.709898 49.530559 1.194721 # O
550 1 1 -0.009364 48.638476 49.489091 -0.072731 # C
551 1 1 0.185098 46.562050 50.677853 0.607049 # C
552 1 1 0.109084 48.019910 50.494834 0.758350 # C
553 1 1 0.066039 45.825370 52.011587 0.474685 # C
554 1 1 0.074835 48.853267 51.965934 0.771653 # C
555 1 1 0.062991 46.573354 53.191028 0.894971 # C
556 1 1 0.091570 47.978290 53.118300 0.247808 # C
557 1 1 0.127928 45.713037 54.615784 0.582878 # C
558 1 1 0.110226 48.760100 54.540179 -0.068125 # C
559 1 1 0.011777 50.967386 55.710225 -0.059377 # C
560 1 1 -0.020626 52.341022 55.679936 -0.497749 # C
561 1 1 0.115045 50.368446 17.634152 0.349588 # C
562 1 1 0.135933 52.993227 17.567877 -0.524134 # C
563 1 1 0.109159 50.801317 18.800719 -0.516858 # C
564 1 1 -0.035661 52.318160 18.829076 -0.453847 # C
565 1 1 0.000654 50.137280 20.084918 -0.140188 # C
566 1 1 -0.080794 53.008034 20.045786 -0.355465 # C
567 1 1 -0.027951 50.868586 21.286870 -0.306432 # C
568 1 1 0.029435 52.291721 21.276296 -0.288796 # C
569 1 1 0.219375 50.308662 22.629184 -0.729683 # C
570 1 1 0.138668 52.975546 22.526013 -0.150326 # C
571 1 1 -0.037689 50.911582 23.738112 0.064108 # C
572 1 1 -0.010389 52.335891 23.764231 0.171788 # C
573 1 1 0.144995 50.060859 24.750389 0.657655 # C
574 1 1 -0.075165 53.006705 24.962498 0.594342 # C
575 1 1 -0.070489 50.776895 26.000284 0.925273 # C
576 1 1 0.056293 52.195234 26.146778 0.759895 # C
577 1 1 0.117816 50.004409 27.086488 1.510861 # C
578 1 1 -0.079078 52.792425 27.439119 0.572676 # C
579 1 1 0.151365 50.958816 28.815559 1.614547 # C
580 1 1 -0.031091 52.149187 28.660864 0.788724 # C
581 1 1 -0.065444 50.249627 30.081801 1.506210 # C
582 1 1 0.167713 52.749990 29.854296 0.165380 # C
583 1 1 0.135166 51.053120 31.263371 1.278591 # C
584 1 1 -0.103781 52.183542 31.191078 0.378922 # C
585 1 1 0.086193 50.142429 32.783411 1.037500 # C
586 1 1 0.163882 52.707628 32.371803 -0.201953 # C