     199
 i =       10, E =     -2755.0325647683
 Si         3.4422689585        5.3652892408       13.4978589549
 Si         4.1731068234        8.2757849432       12.9070528742
 Al         6.1900699393       10.5818751139       12.7508558255
 Si         9.1243651753       11.3621448528       13.3343538972
 Al        11.3187493559        9.1440544835       13.5418655900
 Si        10.6837192556        6.1382671206       12.8511617703
 Si         8.4357625227        3.9433675978       12.9298988108
 Si         5.5864520057        3.1681479112       13.6584728584
 Si        11.1781355908        5.5801765475        1.1786810078
 Si        10.5757103555        8.5031807670        1.8377319916
 Si         8.4722130069       10.6616860097        1.6475223540
 Si         5.6174900153       11.2883146189        1.0863496843
 Si         3.4215483431        9.1285955426        1.1717282186
 Si         3.9956412328        6.1505971120        1.8004327384
 Al         6.2512197856        3.9299384179        1.9090132039
 Si         9.0399745469        3.4409448823        1.2363212680
 Si        13.4102689164        3.4407554874        5.3913449246
 Si        12.8041863435        4.1596356274        8.3433629054
 Si        12.9907890082        6.0699900742       10.7336991999
 Si        13.6492738841        8.9250562178       11.4791685429
 Al        13.5691269280       11.2197147140        9.2468579796
 Si        13.0101556121       10.5840875383        6.2308969203
 Al        12.7880819492        8.4031845982        4.0024859507
 Si        13.3905190289        5.5106046532        3.2987153773
 Si         1.2637955772       11.1218866856        5.5667066209
 Si         1.8588428273       10.7054049275        8.5212012783
 Al         1.9464239523        8.3379093519       10.6670855567
 Si         1.3451308864        5.4371938332       11.1929551599
 Si         1.0941822303        3.3627731164        8.9719989009
 Si         1.7004908875        3.8668199324        5.9591939694
 Si         1.6556481511        6.0602173787        3.8170548403
 Si         1.1513904794        8.9084797230        3.3036761804
 Al         5.6134094064       13.5243965454        3.2303164241
 Si         8.7041568410       12.7924720023        3.7626983894
 Si        10.9264656461       12.9345677985        6.0059679670
 Si        11.4839298410       13.6232056971        9.0042910994
 Al         9.0236478345       13.5105788246       11.0916619145
 Si         6.0713137811       12.7853451391       10.7060004640
 Si         3.8109904009       13.0374260556        8.5449567492
 Si         3.3845714615       13.3046265286        5.3927413453
 Al         5.4589554291        1.0412810197       11.2932905091
 Si         8.3752455755        1.7924565283       10.7182894397
 Al        10.6650832469        1.8117747374        8.4340192373
 Si        11.2247648648        1.1678654361        5.4761673952
 Si         9.0722407478        1.0539275045        3.4200119365
 Si         6.2187955555        1.6816658621        4.0458847535
 Si         3.8918624960        1.5715233525        5.9586341404
 Si         3.2110277686        1.1979432510        9.0174845725
  O         0.3530471719        2.9870986144        5.4175463998
  O         2.9613142110        2.9246535473        5.5380490342
  O         1.7112724226        1.8571212468        9.1110645167
  O         2.7818636411       14.2054187299        8.8891900898
  O         3.2357797913       11.5575896817        8.9368047015
  O         1.9629358323       12.5835076297        5.3190509486
  O        14.3258739490       11.4958270207        5.8537255392
  O        11.6851385656       11.5322500808        5.7011481464
  O        12.9302400757       12.8317250978        9.3286194479
  O        11.8229765795        0.5692129183        8.8613067943
  O        11.5073098577        3.3827275607        8.6395109919
  O        12.6162855330        2.0368920264        5.6698848148
  O         0.5304301713       11.5477112162        8.8832478608
  O        11.7096177803       14.2492918146        5.3998847627
  O        14.1236671403        3.1695608445        8.7879314508
  O         3.1705747998        0.3034827514        5.3192807117
  O         5.6275988527        0.5909139635        2.9477580889
  O         6.1291820015        3.2404196979        3.5183987719
  O         8.9487410442        1.9265680692        1.8805851883
  O         0.6068465164        8.8048644336       11.6874116894
  O         3.4447171520        8.6315847437       11.5161608248
  O         2.0438913177        5.3184569130       12.6470279027
  O         9.3347694934       14.1723086482        2.9842873800
  O         9.1100979264       11.4883932529        2.8755091098
  O         5.3609004104       12.8167875023        1.6634760317
  O        14.3645101300        5.5208763268       11.4506357294
  O        11.6165471976        5.6435030690       11.5390969793
  O        12.9509121741        8.8575631986       12.9055202156
  O         5.5937217674       13.9548847181       11.8024789170
  O         5.5818272184       11.3039827359       11.2806333281
  O         9.1301127852       12.9073147135       12.8188248829
  O        14.1782891075        8.8564212742        2.9697131805
  O        11.2667381337        8.7525347093        3.2770339650
  O        12.6644716304        5.7136239495        1.8150163987
  O         8.8079353655        0.5630497692       11.6685730839
  O         8.7927511559        3.2073497509       11.4943309228
  O         5.5433286793        1.6507058347       12.9600269171
  O         0.3275026373        5.6642273948        2.9826248700
  O         3.0131890594        5.5098829828        2.9949316484
  O         1.8842018047        9.1047121872        1.8583446939
  O         3.1647936862        5.7776096198        0.4147787805
  O         3.2342539830        8.8195368809       14.1823879895
  O         8.8093788746       11.5462453336        0.3515696595
  O        11.4843891961        5.7409735015       14.1920271947
  O         5.6094887227        2.9319812685        0.6145891460
  O        11.5476562299        8.8940917882        0.6185233565
  O         9.0941036104        3.1105977325       14.2185195767
  O         5.6608795661       11.4712606455       14.1468294603
  O         7.9709499272       10.4705161058       12.7240869186
  O        10.5722186980       10.6588345214       13.1774910071
  O         9.0831098867        9.1720437484        1.6699778504
  O        10.1996178999        6.8002763493        1.6684482123
  O        10.5983582932        4.0569653243        1.5292116479
  O         9.1813274871        5.4696111902       12.7920167326
  O         6.8548772718        4.1911295446       13.1983415937
  O         4.1932827149        3.9815950601       13.2731377489
  O         5.4937799327        5.5390556544        1.8761538342
  O         4.2607127222        7.8269018265        1.8342034769
  O         4.2812613526       10.4481846646        1.4505849275
  O         5.7154468052        8.8390908847       12.8698768173
  O         7.9291445466        4.4823245007        1.7308001609
  O         4.3462890842        6.5924174607       12.8214500514
  O         6.8452164456       10.3284260124        1.5496827515
  O        10.4311121094        7.7826977811       12.8417549225
  O        13.1098916323        7.6623722080       10.4411777406
  O        13.3426996669       10.3475720915       10.7687549045
  O         2.0837470002        9.2411346218        9.2235349438
  O         7.8089663617        1.3716527966        4.4162324785
  O        10.5689433057        1.4734608914        3.9890289234
  O         9.4482308877       12.8410324542        5.2406993499
  O         1.8339318134        6.6563366131       10.3499507911
  O         1.6609341785        4.1085047464       10.2815431611
  O        12.8895912723        5.5477289397        9.1479758466
  O         7.1011601930       12.8890754365        3.8692932403
  O         4.3768600540       12.9435449957        4.2384477778
  O         5.5073588869        1.6645555661        5.5395845230
  O        13.0685101103        6.6823016516        4.4139575152
  O        13.1120744333        4.0534400117        3.9382573046
  O         1.8237258818        5.3239178594        5.2376959746
  O         6.8169151988        1.6389400361       10.2415177952
  O         4.0138813434        1.4026443989       10.3436415256
  O         5.2837315956       13.2103762146        9.2611729560
  O         1.6741839540        7.6314156677        4.1634621062
  O         1.6670198821       10.2031873601        4.2516408303
  O        12.8825939633        9.1273114722        5.5572261240
  O         7.6514719356       12.8358359817       10.3546102739
  O        10.5326444322       13.2654065167       10.3065604888
  O         9.1850336649        1.7700297113        9.3075811949
  O        10.6233652870       13.1691230996        7.6323018448
  O        10.2608862751        1.5353505553        6.7140891054
  O         1.7116094206        4.0510431503        7.6054585905
  O         3.9359618494       13.0181052312        6.8967798389
  O        13.0164124527       10.2771611261        7.7724818433
  O         4.0485205486        1.5850408461        7.6099455444
  O         1.9208570416       10.4190468788        6.9195681301
  O        12.9772709949        4.4220724609        6.6943375371
  O         7.3548817536       11.5374194586        7.3934099341
  C         7.3745736217       12.6984089481        7.3279636430
  O         7.3845354373       13.8624883190        7.2284084197
  O        14.6766531707        4.0538071625       14.6027357506
  C        14.7706439524        5.2205658948       14.5994714180
  O        14.8724051820        6.3867145825       14.6121081937
  O        13.7411045556        7.0631799737        7.4021849955
  C        12.6111045556        7.2061467646        7.2860238261
  O        11.4611045556        7.2043245737        7.1011200279
  O        12.7450890571       -0.1262107961       12.7183590664
  C        13.4453251249        0.6594246007       12.2188636312
  O        14.1606666999        1.4567187309       11.7243897630
  O         7.6102182005        9.0555348999        9.7631291703
  C         7.4153911789        8.4946313952        8.7653720820
  O         7.1801453375        7.9220419158        7.7558154122
  O         5.0483885050        9.2976622953        4.7604168071
  C         4.8889594308        9.4084117453        5.9191225262
  O         4.7464731455        9.4990790508        7.0767302430
  O         5.8485047793        5.9326828725        5.5421428657
  C         5.5485527543        5.2003085803        6.4267500175
  O         5.2199531670        4.4585124388        7.2586707465
  O        -0.0579586083        0.0285531018        3.9941844146
  C        -0.0222762404        0.0199032135        5.1617266651
  O         0.0406047093        0.0128417931        6.3292713670
  O         2.3431398969        2.1191259035        2.4918517141
  C         2.6722094426        1.3904861404        1.6430985939
  O         2.9959478022        0.6598064412        0.7742253686
  O         9.3212945889        6.4281643279        9.7933033534
  C         8.9111893378        5.4598268494        9.2710522152
  O         8.4628015379        4.5232001414        8.7374485540
  O         0.6148673379       13.1324355200       12.5735703811
  C         1.6802421464       12.6563346553       12.5957474560
  O         2.7556580052       12.1906265323       12.6430416580
  O        13.2573413661        1.1510591136        1.2390118227
  C        12.2034357858        0.7888150385        0.8810206649
  O        11.1511929562        0.4184713401        0.5103834737
  O         6.0524667534        6.6666288725       10.3963586425
  C         5.3308258613        5.7323501767       10.4023196559
  O         4.6406472487        4.7933115864       10.3528855683
  O        10.5615863094        5.0101195976        4.6222319434
  C        10.0397090593        5.4589890857        5.5668854294
  O         9.5041078728        5.9106464929        6.4811851993
  O         8.2699441725        7.6181557012        4.6465791318
  C         8.7373093559        8.5410077174        5.2130594569
  O         9.1853422418        9.4547697145        5.7858145316
 Na         5.0029128621       -0.6915064209       -0.4407482496
 Na        14.0492500688        8.5968370954        0.4226409957
 Na         4.5335392382        9.8511435160        9.8274678687
 Na        14.2627121216       14.8004767375        8.7208638986
 Na         9.0355995431        0.3423989012       13.9465864658
 Na         7.0051507690        1.4377165336        7.8843622865
 Na         7.4263969918        6.9437783108        2.2173492401
 Na        13.1048999018        7.8448187173        7.8919353882
 Na         4.3113362113        4.3392153656        4.3166026004
 Na         8.1199476374        8.0308024115       12.2120913320
