# LAMMPS data file written by OVITO Basic 3.3.1
272 atoms
4 atom types
0.0 15.4231 xlo xhi
0.0 15.4041999989 ylo yhi
0.0 18.4378999905 zlo zhi
-1.8819780604e-04 -5.7924371178e-04 -1.2872790167e-04 xy xz yz

Masses

1 12.0107  # C
2 1.00794  # H
3 14.0067  # N
4 65.38  # Zn

Atoms  # charge

1 1 0.0 13.3892398112 11.4156348744 15.7068782439
2 2 0.0 12.7325276176 12.1719839045 15.3043788871
3 1 0.0 14.0974589828 9.6258138879 16.7078718343
4 2 0.0 14.0564282915 8.6901590739 17.2386989751
5 1 0.0 15.1892649396 10.3461172818 16.2779000066
6 2 0.0 0.8175569619 10.1392381575 16.3807834885
7 1 0.0 10.387681285 8.3234063043 14.1975517506
8 2 0.0 11.1073336928 8.8969085746 13.6383302439
9 1 0.0 10.1700922788 12.9819297158 16.3105350896
10 2 0.0 10.7738766135 13.3215865742 17.1343404611
11 1 0.0 9.2054371179 11.5960233561 14.9477899013
12 2 0.0 8.8894437976 10.6774741941 14.4774390725
13 1 0.0 1.7353097305 13.2069760462 17.6041381529
14 2 0.0 0.8756153747 12.7944480585 18.1071240646
15 1 0.0 1.7578342826 13.707341613 12.2829602156
16 2 0.0 1.655408412 14.7751599923 12.3924813416
17 1 0.0 13.8660677575 15.3205981079 15.9168859248
18 2 0.0 14.2233905699 15.2095267652 16.9282047392
19 1 0.0 13.6309359554 15.0592037857 13.7753238409
20 2 0.0 13.8101881665 14.6620903851 12.7905556024
21 1 0.0 11.4565913087 9.1674930866 1.2115544084
22 2 0.0 12.4776103245 8.8957644378 1.0054186865
23 1 0.0 3.04847257 13.9457723968 16.0402354757
24 2 0.0 3.3694549446 14.2284463821 15.0497514882
25 3 0.0 12.9539934503 10.3097629141 16.3431701725
26 3 0.0 14.7332099196 11.4840299691 15.6428987309
27 3 0.0 10.6200677824 9.6377902381 0.2195953889
28 3 0.0 10.234330872 8.4869893966 15.5599281809
29 3 0.0 10.0020055689 11.6383773176 16.0347041057
30 3 0.0 1.7732886593 13.4814881032 16.2845376506
31 3 0.0 1.1425905306 12.8215940873 13.1460383142
32 3 0.0 14.340523814 14.6129364614 14.8710882373
33 4 0.0 10.9883117928 9.9885827915 16.7087937293
34 4 0.0 0.2880902862 13.1247361203 14.9540587873
35 1 0.0 9.7446789534 3.9882561249 6.4879282486
36 2 0.0 10.401107969 3.2319127138 6.0856132708
37 1 0.0 9.0362426605 5.7782171774 7.4887374601
38 2 0.0 9.0773942357 6.7138645806 8.0193802218
39 1 0.0 7.9446179506 5.0579197874 7.0587656323
40 2 0.0 6.8932194678 5.2649515184 7.1614647353
41 1 0.0 12.7466407869 7.0800436457 4.9784173764
42 2 0.0 12.0273319857 6.5063951433 4.4190114907
43 1 0.0 12.9636343241 2.4221068965 7.0915850943
44 2 0.0 12.3596439972 2.082438535 7.9153904659
45 1 0.0 13.928529334 3.8080322834 5.729024285
46 2 0.0 14.2447064402 4.7264339712 5.2586734563
47 1 0.0 5.9752355929 2.197042503 8.3851881577
48 2 0.0 6.8348983452 2.6095634672 8.8881740694
49 1 0.0 5.9528911435 1.6967512366 3.0641945994
50 2 0.0 6.0553101366 0.6290853713 3.1735313464
51 1 0.0 9.2675293558 0.0832899603 6.6977515505
52 2 0.0 8.9099887694 0.1943471816 7.709070365
53 1 0.0 9.5029499435 0.34502227 4.5561894666
54 2 0.0 9.3237595994 0.7423034621 3.5716056072
55 1 0.0 11.6776589842 6.2366256322 10.4303200246
56 2 0.0 10.6564986816 6.5085112 10.2243686817
57 1 0.0 4.6621710163 1.4582679897 6.8212854805
58 2 0.0 4.3412508757 1.175607835 5.830801493
59 3 0.0 10.1797311021 5.0942732424 7.1242201773
60 3 0.0 8.4005586321 3.9200159656 6.4239487357
61 3 0.0 12.5140906004 5.7663423305 9.4385453841
62 3 0.0 12.899597124 6.9170576967 6.3409781857
63 3 0.0 13.131892592 3.7655091029 6.8159384895
64 3 0.0 5.9373395713 1.9225488708 7.0657720343
65 3 0.0 6.5680806725 2.5824867121 3.927088319
66 3 0.0 8.793139001 0.7911202504 5.6521382421
67 4 0.0 12.1453897868 5.4154482597 7.4898437341
68 4 0.0 7.4226215466 2.279319433 5.735108792
69 1 0.0 2.0328064673 3.7134070587 11.9505248788
70 2 0.0 2.6895001818 4.4695964265 12.3530242356
71 1 0.0 1.3246310389 1.9237540941 10.9491625303
72 2 0.0 1.3655303615 0.9881066922 10.4183353896
73 1 0.0 0.232807476 2.6440514828 11.3793187371
74 2 0.0 14.6045205145 2.4371737964 11.2762508762
75 1 0.0 5.034749023 0.6213114579 13.459482614
76 2 0.0 4.3152368271 1.1948059182 14.0188884997
77 1 0.0 5.2514530427 5.2800184157 11.3464992751
78 2 0.0 4.6471977116 5.619532734 10.5228782826
79 1 0.0 6.2167590035 3.8940930301 12.7088757054
80 2 0.0 6.533083236 2.9755373016 13.1790421552
81 1 0.0 13.6868470177 5.5049287673 10.0528962118
82 2 0.0 14.5463972243 5.092253761 9.5499103001
83 1 0.0 13.663847557 6.0053740769 15.373705391
84 2 0.0 13.7660931009 7.0730399422 15.2643686441
85 1 0.0 1.5560373532 7.6183732285 11.7399640609
86 2 0.0 1.1988714875 7.5071619652 10.7286452464
87 1 0.0 1.7910213022 7.3572570855 13.8817105238
88 2 0.0 1.6116245693 6.9601299355 14.8662943833
89 1 0.0 3.9660891582 1.4653456394 8.0075799659
90 2 0.0 2.9449225511 1.1936141122 8.2137156877
91 1 0.0 12.3736661321 6.2437032818 11.61661451
92 2 0.0 12.0526768507 6.5263634365 12.6070984975
93 3 0.0 2.4680798574 2.6073899425 11.3140485711
94 3 0.0 0.6886804626 3.7818012613 12.0143200128
95 3 0.0 4.8024469622 1.9356289398 8.9995389853
96 3 0.0 5.1880954368 0.7850676156 12.0971061837
97 3 0.0 5.4198810496 3.9364621674 11.62214588
98 3 0.0 13.6488613873 5.7794223995 11.3723123351
99 3 0.0 14.2794214022 5.1196386002 14.5109960505
100 3 0.0 1.0815985864 6.9108510211 12.7857617484
101 4 0.0 4.4337693648 2.2865230105 10.9482406353
102 4 0.0 15.134068472 5.4226518372 12.7029755774
103 1 0.0 5.6780940908 11.6905363934 2.7313905046
104 2 0.0 5.0213750884 10.9341873633 3.1338898614
105 1 0.0 6.3863324232 13.4803573799 1.7303969141
106 2 0.0 6.3453122225 14.4160121939 1.1995697734
107 1 0.0 7.4781289586 12.7600539847 2.1605531209
108 2 0.0 8.5295223903 12.966933109 2.0576696389
109 1 0.0 2.6757482605 14.7823028388 4.2405326188
110 2 0.0 3.3950710787 14.2086465252 4.7999385045
111 1 0.0 2.4594854598 10.1240875113 2.1275492799
112 2 0.0 3.0637925405 9.7845846936 1.3039282873
113 1 0.0 1.4940939041 11.5099938748 3.4897413312
114 2 0.0 1.1775859011 12.4283889962 3.9599077809
115 1 0.0 9.4472727643 9.8991952229 0.8339462166
116 2 0.0 8.5877541631 10.3117232106 0.3309603048
117 1 0.0 9.4700921396 9.3986756166 6.1547553958
118 2 0.0 9.3680077023 8.3310112794 6.0452342699
119 1 0.0 6.155030662 7.7854191205 2.5210140657
120 2 0.0 6.5125685288 7.8964904619 1.5098796302
121 1 0.0 5.9194494483 8.0471215267 4.6625761496
122 2 0.0 6.0984758483 8.4443889693 5.6473443881
123 1 0.0 3.7444798911 13.9386781825 17.2265299611
124 2 0.0 4.7656335521 14.2104068326 17.432481304
125 1 0.0 10.7603553928 9.1603988723 2.3978488938
126 2 0.0 11.0814366712 8.877724887 3.3883328812
127 3 0.0 5.2428606916 12.796562397 2.0949141969
128 3 0.0 7.0220618485 11.6222953407 2.7953700176
129 3 0.0 2.9080597604 13.468381031 18.2184889806
130 3 0.0 2.5229501347 14.6190278305 2.8781561885
131 3 0.0 2.2908859083 11.467639912 2.4030115058
132 3 0.0 9.4853297243 9.6246831672 2.1533623399
133 3 0.0 8.8544182691 10.2844231398 5.2920460553
134 3 0.0 6.6294037156 8.493234809 3.5668117532
135 4 0.0 3.277194161 13.1175884776 1.7292906401
136 4 0.0 8.0000390316 9.9814351488 3.4840255822
137 1 0.0 2.0332469782 3.9884363965 2.7310217466
138 2 0.0 2.6898049409 3.2320873665 3.1335211034
139 1 0.0 1.3248735757 5.778257383 1.7300281561
140 2 0.0 1.3659042612 6.7139121957 1.1993853944
141 1 0.0 0.2330676131 5.0579539879 2.1601843629
142 2 0.0 14.6047755907 5.2648331121 2.0573008809
143 1 0.0 5.0348055006 7.0805109233 4.2405326188
144 2 0.0 4.3153073256 6.5068546111 4.7997541255
145 1 0.0 5.2522402796 2.4221415552 2.1273649009
146 2 0.0 4.648301714 2.0824846968 1.3035595293
147 1 0.0 6.2168954406 3.8080479148 3.4901100892
148 2 0.0 6.5330429995 4.7264430362 3.9602765389
149 1 0.0 13.6870228279 2.1970952248 0.8337618376
150 2 0.0 14.5467171838 2.6096232124 0.3307759258
151 1 0.0 13.6644982759 1.6967296579 6.1549397748
152 2 0.0 13.7667699155 0.6289112786 6.0454186489
153 1 0.0 1.556264801 0.083473163 2.5210140657
154 2 0.0 1.1989419886 0.1945445057 1.5096952512
155 1 0.0 1.7913965973 0.344867484 4.6627605286
156 2 0.0 1.611990161 0.7419808859 5.6473443881
157 1 0.0 3.9657412421 6.2367322251 17.2265299611
158 2 0.0 2.9447222302 6.5086149171 17.432481304
159 1 0.0 12.3738599885 1.4582988741 2.3976645148
160 2 0.0 12.0528776139 1.1756248889 3.3881485022
161 3 0.0 2.4683391063 5.0944623988 2.0947298179
162 3 0.0 0.6891226389 3.9200413018 2.7950012596
163 3 0.0 4.8022647761 5.7662810328 18.2183046016
164 3 0.0 5.1881559175 6.9170818743 2.8779718095
165 3 0.0 5.4203269953 3.7656939546 2.4030115058
166 3 0.0 13.6490438992 1.9225831677 2.1533623399
167 3 0.0 14.2797420279 2.5824771836 5.2918616763
168 3 0.0 1.0818087445 0.7911348095 3.5668117532
169 4 0.0 4.4340207657 5.4154884795 1.7291062611
170 4 0.0 15.1342422723 2.2793351507 3.4838412032
171 1 0.0 5.6776536108 11.4158151473 11.9497873628
172 2 0.0 5.0210703584 12.1721585571 12.3522867196
173 1 0.0 6.3859356709 9.6260081368 10.9489781513
174 2 0.0 6.3449383285 8.6902066917 10.4183353896
175 1 0.0 7.4777146079 10.3461514835 11.3791343581
176 2 0.0 8.5291130965 10.1391197538 11.2762508762
177 1 0.0 2.6755375406 8.3240276253 13.459482614
178 2 0.0 3.3948463476 8.8976761289 14.0187041207
179 1 0.0 2.4585440034 12.9819643745 11.3463148961
180 2 0.0 3.0625343303 13.321632736 10.5225095246
181 1 0.0 1.4938032245 11.5960389876 12.7088757054
182 2 0.0 1.1776261183 10.6776372998 13.1792265342
183 1 0.0 9.4470969656 13.207028768 10.0527118328
184 2 0.0 8.5875884443 12.7945078037 9.5497259211
185 1 0.0 9.469287184 13.7073200344 15.373705391
186 2 0.0 9.3668681909 14.7749858996 15.2643686441
187 1 0.0 6.1549574318 15.3209353527 11.7401484399
188 2 0.0 6.5126522474 15.2100321734 10.7288296254
189 1 0.0 5.9192283917 15.0588949602 13.8815261448
190 2 0.0 6.0982645066 14.6614597262 14.8661100043
191 1 0.0 3.7446735801 9.1674456401 8.0073955869
192 2 0.0 4.765833875 8.8957141129 8.2135313087
193 1 0.0 10.760161548 13.9458032825 11.616430131
194 2 0.0 11.0810816809 14.2286174779 12.6070984975
195 3 0.0 5.2424472235 10.3099520705 11.3136798131
196 3 0.0 7.0217739322 11.4840553066 12.0137668758
197 3 0.0 2.9080877271 9.6377289405 8.9993546063
198 3 0.0 2.5227354345 8.4870135743 12.0969218047
199 3 0.0 2.2904399665 11.6385621681 11.621961501
200 3 0.0 9.4849929872 13.4815224002 11.3721279561
201 3 0.0 8.8542518918 12.8215845602 14.5106272925
202 3 0.0 6.6291935575 14.6129510205 12.7857617484
203 4 0.0 3.2767885407 9.9886230112 10.9480562563
204 4 0.0 7.9998652429 13.1247518379 12.7027911984
205 1 0.0 13.3895260911 11.6906642122 6.4873751116
206 2 0.0 12.7328323825 10.9344748457 6.0846913758
207 1 0.0 14.0978557506 13.4803171769 7.4887374601
208 2 0.0 14.056802197 14.4159645787 8.0195646008
209 1 0.0 15.1895250825 12.7600197881 7.0585812533
210 2 0.0 0.8178120498 12.9668974758 7.1614647353
211 1 0.0 10.3874293141 14.7824517304 4.9782329974
212 2 0.0 11.1067872731 14.2089572687 4.4190114907
213 1 0.0 10.1710337449 10.1242068972 7.0914007153
214 2 0.0 10.7752890837 9.7845385382 7.9148373289
215 1 0.0 9.2055735492 11.5099782395 5.729208664
216 2 0.0 8.8889408566 12.428379926 5.2590422143
217 1 0.0 1.7354855408 9.8991425037 8.3850037787
218 2 0.0 0.8757811051 10.3116634679 8.8879896904
219 1 0.0 1.7586392325 9.398697194 3.0641945994
220 2 0.0 1.6563936886 8.3310313287 3.1735313464
221 1 0.0 13.8662952053 7.7856980424 6.6979359295
222 2 0.0 14.223461071 7.8969093057 7.709254744
223 1 0.0 13.6313112563 8.0468141854 4.5561894666
224 2 0.0 13.810553764 8.4439413368 3.5714212282
225 1 0.0 11.4563976313 13.9387256316 10.4303200246
226 2 0.0 12.4774100055 14.2106112007 10.2241843027
227 1 0.0 3.0486664264 9.1603679891 6.8212854805
228 2 0.0 3.3696557078 8.8777078344 5.830801493
229 3 0.0 12.954252701 12.7966813284 7.1238514193
230 3 0.0 14.7334978649 11.6222700096 6.4235799777
231 3 0.0 10.6198855944 13.4685963732 9.4383610051
232 3 0.0 10.2342371217 14.6190036554 6.3407938067
233 3 0.0 10.0024515089 11.4676091036 6.8157541105
234 3 0.0 1.7734711711 9.6246488715 7.0655876553
235 3 0.0 1.1429111563 10.2844326708 3.92690394
236 3 0.0 14.3407339779 8.4932202511 5.6519538631
237 4 0.0 10.9885631937 13.1175482605 7.4896593551
238 4 0.0 0.2882640865 9.9814194337 5.734924413
239 1 0.0 9.7442384619 3.7135348763 15.7066938649
240 2 0.0 10.4009574643 4.4698839064 15.3041945081
241 1 0.0 9.0360001295 1.9237138898 16.7076874553
242 2 0.0 9.077020336 0.9880590771 17.2383302171
243 1 0.0 7.9442035941 2.6440172849 16.2775312486
244 2 0.0 6.8928101624 2.4371381607 16.3804147305
245 1 0.0 12.746430067 0.6217684322 14.1973673716
246 2 0.0 12.0271072507 1.1952707037 13.6379614859
247 1 0.0 12.9628470929 5.2799837583 16.3105350896
248 2 0.0 12.358694249 5.6194865773 17.1339717031
249 1 0.0 13.9282386601 3.8940773974 14.9479742803
250 2 0.0 14.2445924322 2.9756822761 14.4778078305
251 1 0.0 5.9750597942 5.5048760481 17.6039537739
252 2 0.0 6.8345783973 5.0921940184 18.1069396856
253 1 0.0 5.9523946498 6.0053956543 12.2831445946
254 2 0.0 6.0546333181 7.0730599916 12.3926657206
255 1 0.0 9.2671476655 7.6186521505 15.9168859248
256 2 0.0 8.909609791 7.5077348498 16.9282047392
257 1 0.0 9.503037343 7.3567957023 13.7753238409
258 2 0.0 9.3240109373 6.9595282584 12.7907399814
259 1 0.0 11.6778526674 1.4653930885 1.2113700294
260 2 0.0 10.6566990064 1.1936644384 1.0054186865
261 1 0.0 4.661977158 6.2438264394 16.0402354757
262 2 0.0 4.3410501087 6.5266544667 15.0497514882
263 3 0.0 10.1794718668 2.607508874 16.3429857935
264 3 0.0 8.4002707042 3.781775929 15.6427143519
265 3 0.0 12.5144270309 1.935536198 0.2194110099
266 3 0.0 12.8993824238 0.7850434405 15.5597438019
267 3 0.0 13.1312924192 3.9364313589 16.0348884847
268 3 0.0 5.9371570633 5.7795421458 16.2845376506
269 3 0.0 6.5679142836 5.1196481299 13.1460383142
270 3 0.0 8.7930830739 6.910836462 14.8710882373
271 4 0.0 12.1451383975 2.2864827933 16.7086093503
272 4 0.0 7.4222935269 5.4226361221 14.9538744083
