438
 i =     6400, time =    12800.000, E =    -10932.3615554333
  O         4.1900676348       16.5637006843        3.4231258398
  O         3.3837677313        8.7601410675       10.2051163230
  O        13.9554889906        1.3104643479        1.8937202581
  O        12.2350366827       15.7680157304       17.0671049645
  O         1.9265239610        7.3700972836        1.6332528192
  O        16.2600828474       16.3374114157       12.1310100375
  O         4.0379592905       11.4250517066       18.6963199854
  O        17.6235787080       15.6962626727       20.1299874344
  O        15.4381967390       14.1197567977       20.9404511850
  O         1.7893458407       15.7335154717        2.6018220279
  O        11.3975101620        7.3218229745        0.8629648190
  O        17.9866813880       13.6744082058        2.4610256744
  O        10.7280461971        6.5154168759       16.9567246008
  O         1.3802407286       14.8022444978       18.8514389063
  O        17.8963828160        3.1858370201       18.3505079451
  O        12.3382276644        1.7931712447        8.7005692500
  O        13.7058441966        1.3638926647       18.5869141114
  O        17.0533930865        6.4270974570        1.5541443324
  O        10.6674671001        0.5664095864       15.8260335366
  O        15.5447726790       19.4940476958        6.2251336765
  O         4.6344865387        8.2248483131       20.1904417957
  O         3.0936571136       18.7448421041       12.5078912583
  O         0.9208661420        8.1101013916        9.1325525175
  O        16.3341963300       16.4564937365        7.3970196311
  O        17.3307277928        3.8323901821        1.5323374227
  O         7.6214197921        6.1213922418       17.0777441601
  O        16.0455980900        1.7575047009       19.6299778209
  O        -0.1471758687       18.5192078556        2.0550968521
  O        -0.3370728270        4.1409285039       13.7522924689
  O         2.4077574709       17.7289989910       17.4551333023
  O        11.8829928515        3.8479915961        3.1408444244
  O         0.5758269517        2.4685050735        7.7083210469
  O         4.5833858675        2.9744857101       14.5199940827
  O        16.6622648436        4.7835163784       10.7541393025
  O         5.3971939266        5.2861263783        4.0740375468
  O        11.3927162601        4.0386094835        5.8742741872
  O         4.3414264638       18.7892266850        9.4514632655
  O        14.5751108536       15.4480843508       16.0148828842
  O        16.9260400436       11.1787862618       19.3868376095
  O        14.9186656008        4.8841079760       20.0597270827
  O        18.5768448782        2.9961837997        5.4788775860
  O         3.1139791034        7.9026232772        7.6320722466
  O         4.6556268577       17.1558025792       18.7254271089
  O        13.2209659172        7.6497563311       16.7032689005
  O         2.0251621475        3.3068679072       15.1280876876
  O        15.7314546707        4.9490299924        3.3356349761
  O        14.3522393683       11.8343491254        1.8864855330
  O         9.6045800806       18.9609207343       20.5519411540
  O         5.7758307558       19.7246306114        2.6358012464
  O        17.2712019090       18.7818416380       12.6085503945
  O         5.1526990070       12.6685846837       15.3842985294
  O         0.6123659164       15.9467049283       16.4451341835
  O        11.3434880310       17.9902108046        3.1589801587
  O        17.8814783791       11.0757787353        2.4488569280
  O         9.7168627293       16.4192047518        1.7038089352
  O         0.5279045786        1.5910472430       13.6256311410
  O         7.0353306542        3.0674371078        4.2590739022
  O         0.8778058200       18.5677166577        9.7857164454
  O        18.5285267946       20.8306518153        0.8806451479
  O         3.4319121278        4.6412185311        1.4581144009
  O        18.0133374284       13.8529427219       14.7912773173
  O         0.2797776961       13.3147203642       16.9147267604
  O        14.9712988135       12.6732265327       18.6821565181
  O         0.9020991833        7.3923077241       11.6977711394
  O         8.1964288776        2.7675804438       19.9356345504
  O         0.2535039379       11.0965658512       19.7692622699
  O         3.7579461515        2.0424805352        9.4908776684
  O        10.2578220484        3.2257351738       15.6084157858
  O         0.7128456384        7.5703620231       18.5293855594
  O        12.9640481571       13.7723064677       20.0934992167
  O         6.0738291638       19.4638961501       14.6504591016
  O         3.4132437193       11.5960122597        1.8736347538
  O        14.5027651094       16.3525493044       18.5088413284
  O         2.4184910132        2.6865962061       19.2974009977
  O        19.6268774880        9.6191374541       13.7485269682
  O         7.2186075572       15.5871181509        2.2222736013
  O         0.3181589101        7.4936710388        3.8705731552
  O        17.8726501210       17.5020337412       10.3920768602
  O         9.1867574451        2.0897438570       17.6097150876
  O        13.7205236177        5.8906942773        7.7583831172
  O         2.1655907009       10.4096783195        8.6670051681
  O         2.4112114561        9.1699416018        3.5550775170
  O         8.3147857812       18.5803692739       13.3406919814
  O         3.5563728317        0.4861340920        7.0759355940
  O        12.5157611504        5.7683844335       14.9662514982
  O        12.2857856017        9.9017556139       19.4407223955
  O        15.3793488349        8.1539915847       19.5621040289
  O        10.0743330629        9.6104702759        1.6106740122
  O         6.9603832747        1.5758741945       12.6607647930
  O         8.3782489696       20.5110255023        6.3568328966
  O         2.8631178976       11.5637107157        6.4365614890
  O         3.1502983384        4.7705362631       13.0889970840
  O         5.8041236040        6.0278146178       19.0147578046
  O         2.1381603095       17.1008130966        4.9128831436
  O        17.6833697427       20.2082800156       17.0903250321
  O         2.7287328070       14.2936015828       16.3705258506
  O        -0.8600743210       18.5743010475       18.8263644129
  O         1.4716888151        4.5119384453        6.2810796778
  O         3.8488587367       20.1519702601        4.4784297212
  O        15.1158842608       17.6849089898        4.2746903848
  O         9.3664689757        4.4364890015        2.2151845053
  O        12.5249829889       17.7609076287       19.5751086116
  O        14.3543815099       16.7138552639        1.8924392402
  O        17.1992634856       12.7171361200       17.1510967339
  O        13.5673991871        6.2760747805        4.5132647049
  O        17.2166463074        9.6997357448       10.3296907481
  O         5.0426015795        8.1995065939       17.4519350235
  O         1.2170037057        5.1144311440       19.4991749345
  O         0.4273947652       12.2215078449        3.7109161385
  O        18.5268397230        6.5166811883        9.7823030026
  O        15.0263015033       18.7110202916       19.7115685068
  O         1.7842791851       10.6092075992       15.8851096317
  O        -0.1486238185        2.7142595026       16.1212774316
  O        14.3348534396       18.6518908467        9.5985268039
  O         6.0204109775       11.3449491100        1.2164984412
  O         8.7673366432       18.2559808035        3.5069321923
  O        15.0804936547        3.6414143823        7.8483168663
  O         3.2330945179        6.5400908213       18.6467117264
  O         0.6767489082        9.8302853698        6.5066979553
  O        12.2713504001        1.6813691508        4.8214477262
  O        18.7853260382       17.6170620953        7.8574280802
  O         9.5679419403       18.1836158283       17.8893437326
  O        16.7456839018       19.6985039096        3.7685032624
  O        18.2720294530        4.2217066358        8.6630337305
  O        18.7315242464       12.9767730943       11.0475306038
  O         3.7404491713        5.1468828369       15.7946609150
  O         4.6280183556       17.1673814322       14.2615293827
  O        15.7169136359       10.4755999188       17.1535742608
  O        16.4022111278       15.6883006687        3.2152022204
  O        16.4322415368        1.2606207033       14.3573701636
  O        15.7571470976        4.0750416383       14.2012628507
  O         5.9468767073        1.2837373082        8.1994883523
  O         2.0654717404       17.5070030377       14.7064076568
  O         7.6357948689       17.5065500536       19.7524089807
  O         7.8192550004        7.9052712892       19.2167297739
  O        13.8243999698       17.9582571109       16.4965423036
  O         1.7287561678        1.9620981291        5.3732368460
  O        16.6109575554        3.2098472498       16.2264734335
  O        13.9452620430        3.6758402091        4.7351328715
  O        -0.5930219213       16.7553395832       12.8743457563
  O        17.8637158953        8.9334854203       20.1500678973
  O         0.4773721097       15.7870996438        9.4919355937
  O         6.4480906293        2.7550603038       17.8676484891
  O         6.7579973659       17.1151778424       15.7939863696
  O        17.2547956391       17.4886823480       16.7118131737
  O         4.3072209163        2.8643184457        6.1455765160
  O        16.0131593078        1.5586907360       11.7613333023
  O         2.7629355488        6.5294722635        4.1824349504
  O        17.6495996374       20.9873557393        8.8265583864
  O         0.2416163155       18.5794838067       16.2101801538
  O        16.1195943452        8.6874153901        2.8584187348
  O         1.6194495564        5.4410797572        9.8886673844
  O         1.4714283943       19.5588645694       19.7068125306
  O         0.5184029228       12.3685037987        7.5870422136
  O         6.7119198052        4.4520273040        1.9878876500
  O         3.0084595531       16.1035402729       12.4848262651
  O         3.2231028890       20.4352738621        1.9019973518
  O        11.3005190623        3.1811040781        0.7253050770
  O         3.7674428741       19.6912379231       18.7638988634
  O        16.4072350860        6.0142051747        8.3752705206
  O         2.8007175263       14.4801783978        4.8181308070
  O        12.5915376015        9.0912742465        2.6081337809
  O        12.9704349444        5.1504877810       17.6454429624
  O         8.5232173279       14.9092372373       19.2332439854
  O         5.8677461709        9.1308232954        4.5070285496
  O         7.5931604171       19.8206373565       18.9111286432
  O         8.3430999579        5.4105546961        0.1214837495
  O        14.6075972515       19.0637143644       13.1880495173
  O         1.1122004206        3.5192931223        2.2778848120
  O        18.6815359140       15.4598267814        6.3027233045
  O         8.1267397468        1.4554428494       15.0613059418
  O         9.0034976499       10.3765182804        5.3488039632
  O        17.2990511070       12.3813208167        4.6697271111
  O        18.0702679800        6.5781444911       16.9762683098
  O        19.0741415730        8.9065742089       16.4378369469
  O        14.2297167918        2.2187466548       15.5154879947
  O         4.6617484670       18.6726644069       16.5188824125
  O         0.3575258470        2.4950103291       10.3626517769
  O        13.8364171260       15.2579058487        4.1450275971
  O        17.5488986339       17.7998841817        5.4266839810
  O        15.7679831836        5.3051615506        5.9129068539
  O        10.0684952708        1.8703130401       22.1568457124
  O         4.7137149868        2.8908494483        2.9765099151
  O         1.2066641730        6.6233898711       16.0401957025
  O        18.5982592515       11.3235888721       15.3279651421
  O         4.9344193818       13.6751109593        0.5889668696
 Na        13.4037974113       14.5107137884        6.5274492282
 Na        -0.0478814877       18.8967354734       13.9382320500
 Na        14.5565474926        3.4836251545       18.1486119687
 Na        14.3440004338       17.6191248951        7.4347391693
 Na         4.4979349410       13.5807857745       17.7530539031
 Na        13.1860410878       19.2271674430        3.6514297283
 Na         5.0083879565        3.8508968727       19.4815298739
 Na         2.2403575908       18.6383067091        3.0857310609
 Na         6.7940652613       16.0988682918       17.6692026938
 Na        19.2068761589       21.2129476352        3.5206697311
 Na        19.2431112151       16.7919448452        3.8091501647
 Na         3.7635817826       15.8856364919       20.4826445099
 Na        14.8364751239        5.4774487110       15.5746613668
 Na         2.1412454234       20.2107759573       10.9122234059
 Na        11.7861209739       18.4279243299       17.5019950017
 Na         7.2395893892       16.4739311254       13.4851636240
 Na        13.3014815258        3.3887260609       20.8114526405
 Na         5.2950502830        0.3226333478       11.5713235658
 Na        20.0140026137       13.6068800378        5.5301597330
 Na        11.6581310869       20.0077854316        0.7945023430
 Na        17.4079782937       14.1969598054       12.4633018048
 Na         1.9682612918        9.8872465835        1.3718944318
 Na         4.1320556757       10.8516167441        9.6614859192
 Na        12.6227664499        3.3030645739       14.2835197264
 Na        12.6681768163        3.8964168064        8.0816148611
 Na        14.0123969438        8.4405096517        4.3805053058
 Na         0.7264250227        6.4602672314       13.7712340222
 Na         2.3672248565       12.4449536928       14.8843513764
 Na         4.2303522929       18.0501219399        5.4698381641
 Na        18.3320980801        5.5979096428       19.1520213339
 Na        12.1104164886       15.5501448135        1.7066121723
 Na         1.6910496511       16.0454073777        7.0917297163
 Na         7.8759297408       20.5015119130        2.9977250750
 Na        15.4006797862        2.0897799362        3.4089590730
 Na        19.0816318174       11.8300095958       12.8418098591
 Na        10.4884481465       16.1618142357       18.6369206103
 Na        16.7389244436       18.3324276269       21.3446470322
 Na        12.7885876788       19.3002459151       14.6599914625
 Na         2.9209123599       17.3756506872       10.3334585542
 Na        15.0330948985       16.9717569597       14.3471026254
 Na        13.6444018115       14.2588238556       11.8093587438
 Na        18.3216550260        8.5981419350       12.1230773845
 Na         4.6362026950        9.7627280029        2.5583486554
 Na        15.2975190150        5.3100809396       12.4482433274
 Na        10.8817193933       10.1035377415        3.7605243746
 Na         7.1331045545        8.2386870424       15.9926598464
 Na         5.8091281801       18.7751887176        0.5891468425
 Na         7.2095767837       13.3376169040        0.8729444150
 Na        16.3561522010        8.2327581934        8.8427836309
 Na        11.4590751450       16.1362312576        4.6470249753
 Na        16.5543782575       18.9835922367        8.7485016085
 Na         4.9299523807       14.1732112606        3.0678214429
 Na        16.6091620671        2.2856997390        6.6199197192
 Na         9.0171653301       18.1179082570       15.6086996471
 Na         6.4527746955       17.5892261305        3.0731950953
 Na         4.4802884558        6.5638926623        2.3619004239
 Na        17.8954368532        5.2621572133        6.5846442773
 Na        17.7463048952       11.5762760631        6.6091751753
 Na        17.4169964155        7.6358876225        4.0858235768
 Na         2.2789831764        3.8329237969        8.6687042820
 Na        12.9188123858       13.7338067830       17.7086442392
 Na         9.9807895881        8.3914721744       18.1654604968
 Na         2.7260074673        4.0307775009        3.8263442012
 Na         1.2155476059        7.2702441995        6.3868179425
 Na        18.5110836219       14.1577817159        8.2827252954
 Na         1.8818175924       13.4957606256        2.2777306338
 Na         7.4214544905       10.4932154533        3.0270264716
 Na        19.6245321846       10.0466421177        4.1803726350
 Na         0.8291705355       15.1445552813       11.6012953292
 Na        12.1651398397       19.0578550878        9.2312226445
 Na        16.8178964617        8.5977318426       17.7003162891
 Na         1.1276656817        4.0993354058       11.7340031348
 Na        16.4364252805       14.4039360559        5.6604159256
 Na         9.0749641783        4.0157764515        4.9168741226
 Na        -0.2044004391       13.3104987719       19.5738130920
 Na         6.0671082426        3.6332562450       12.6378631509
 Na        10.2746044007        9.8940814915       10.5750962736
 Na        10.5471721946       19.8013243600        4.3142914044
 Na        19.9722656384       19.5028780491        7.4191238088
 Na        15.9024157173       15.8965483254        9.4441349885
 Na        15.8033279496        2.6748526857        9.7530881783
 Na         3.7426609597        5.3590643739        5.8274712107
 Na        16.5747971391       15.7071149053       17.9714773932
 Na        10.3818220384       11.5861498007       19.7060642526
 Na         5.6614324532        1.9024435341       16.0610643814
 Na        11.8936296364        6.4565675478        6.2968543380
 Na         9.0996126115        2.7766521043       13.0388238695
 Na        11.6833163194       22.2363263961       17.7200568011
 Na         6.9879228781       14.4070451360        7.7215931689
 Na        10.7810791630        5.4116289485       19.0528481896
 Na        11.8342384788        6.2906833993        2.8108838266
 Na         5.8342272887       17.1640646756        9.0007846354
 Na         4.0947488247       14.8412944441       14.7368707080
 Na         1.6946887444       11.4184705764       17.9011341974
 Na        13.2379322951       13.1605492558        3.4333680782
 Na        13.6083930146        1.2439668611        6.8803271999
 Na        10.5457697110        2.0113141799        6.8619451749
 Na        -0.8573485420       20.0753183327       10.9559102320
 Na        17.5574642813        3.1487197552       12.3079760392
 Na        17.6297129510        5.3361989480       15.1219058057
 Na        10.0457776780       10.7230090672       14.8356509490
 Na        -1.2200969897       16.1502152236       14.9476909455
 Na         2.8372762826        1.1360316639       14.2197246865
 Na        12.3141532207       12.2571719857        8.9395833816
 Na        19.6442269102        5.4293895400        2.8453903346
 Na        15.1049703641       13.5262652113       15.2157793575
 Na         0.3453377261       16.5140608369       19.9341735342
 Na        15.8545958980       10.7299599335        3.7800530598
 Na         3.6905397522        9.2093589209        5.6810983951
 Na         2.8219185841       11.6278298161        4.1139632455
 Na         2.0023814386        4.3542853316       17.3091578249
 Na        18.8050058339        9.8879091156        8.7712177479
 Na        16.4066905167       10.1256444068       14.9405425036
 Na         5.7861509763        4.8331415153       16.2711650907
 Na        13.5034915544        6.6905287389       19.3741722635
 Na         6.2841416547        9.8604938101       -0.6644759784
 Na         1.3821348705       12.9913912894        9.6796353320
 Na         9.1024187804        7.4334918641        1.6657895437
 Na         2.0888537623        9.4868800174       12.5894723552
 Na         5.5810785403        3.5909593687        9.0448526763
 Na        15.0961906246       19.7319630130       16.8469975759
 Na        13.9435429802       20.5677912556       11.0246012633
 Na         6.7649550696        8.2076659812       12.1041016484
 Na         4.2478520107       10.4297890983       16.5503136936
 Si         0.6519483623        3.0705385402        6.1621914991
 Si         8.0897490961        4.2637547193        1.1856089197
 Si         4.5496942363       12.0417449053        0.7307395611
 Si        17.7637158608       16.7471442160        6.7508996873
 Si        17.4736283207        2.5658096029       19.8280712571
 Si         1.8925150142        7.6376910113        3.4658511310
 Si        18.2590100379       12.4097558181        3.3690854324
 Si         3.3398338557        1.5833039867        5.8642934586
 Si         5.9375982267        3.9552597981        3.4476101432
 Si         9.5877844017        1.7476912761       15.9840921512
 Si        17.8650030216        2.4412328441       16.9021490923
 Si         9.9286175613       17.9607770036        2.4666567208
 Si        16.3022580714       18.8484590868        4.9419557568
 Si        14.3512226661       13.0683622488       20.2210394460
 Si        19.3219944990       17.3579294152        9.4871157723
 Si        10.5497366414        3.2262834335        2.1441442928
 Si         8.6970067310       18.6497804979       19.1341219972
 Si        12.3244748187        6.2384905345       16.6023698576
 Si        17.4342814744        5.2884542698        9.4871205081
 Si        11.5770097999        8.9172187674        1.2679814538
 Si        14.6900174667        5.1595549258        4.6316772227
 Si         3.2224258410       17.4118874059       13.3708321380
 Si        18.3171656207       12.8516541031       15.9790114503
 Si         2.7539622642       20.5685695699       19.7505280915
 Si        14.0420121245       17.3264459130       19.7743897183
 Si        14.5850820348       20.2783623697       19.8636267939
 Si        13.7689177261       16.4531907328       16.9338727894
 Si        18.2505260298       18.6116791261       17.2086118790
 Si         4.5343747708       20.6477301317        2.9892678090
 Si         0.7023714923        6.7991018735       10.1712723817
 Si         8.1789815041       16.0023316598        1.0017105421
 Si         3.8437154748       18.2081058684       17.9098387524
 Si        18.1846318587       10.5816109705       20.2789048408
 Si         7.8114415634        2.0620932074       18.4910310740
 Si        19.4550919831        7.3610884147       16.9680875626
 Si        16.8761192567       14.8091476730        1.8799495429
 Si         2.4543089565        8.7613752621        8.9035266208
 Si        16.1563953684       11.7413773155       18.0985832506
 Si        18.8853793642        2.6449295404        9.0037094610
 Si         0.3579442396       10.0018551228       15.3494563405
 Si        16.0208503484       19.8320143218       12.9371433155
 Si        15.1558437240        5.2084278410        7.5452962872
 Si         3.3819650255        4.1514114354       14.6110784389
 Si        15.6404411424        2.6174950697       14.9085216216
 Si        -0.0791324959       19.3700885194       20.0884249613
 Si         1.3604257544       14.6611585999       17.2042198546
 Si         1.8381036763        6.7470890884       19.4837935091
 Si         7.4456722579        6.4928595505       18.6470765824
 Si         4.4186154677        0.7671756703        8.6667004076
 Si        16.1013652822        4.9985306206        1.7420700907
 Si        12.3345454999        3.2998406134        4.7217621851
 Si         2.8159078879       15.9955092116        3.9991772393
 Si         0.3877352740        2.9128317713       14.5433572404
 Si         4.6540925434        7.3904770361       18.8536730915
 Si        17.5852411213       17.2573068525       12.0354853175
 Si         5.5858163538       18.0251818810       15.3429714480
 Si         1.5317290879       11.0816678177        7.2170357536
 Si        14.8310424592       16.2893595703        3.4843666156
 Si         7.4678900868       19.9442363063       13.8249803526
 Si         2.0572135565        3.9160993106        1.0543457258
 Si         1.3676816743       17.3787525203       16.2079662358
 Si        16.4803480649        8.0809266716        1.4171426386
 Se         4.5148444214        8.7181015073       13.9072697141
 Se         6.3732702541        5.7173869204        7.1163256157
 Se         5.7381890281        5.7810312926       10.8084543490
 Se         8.3837643901        5.7345109644       13.5111622975
 Se         8.5958743192        3.2714955093        9.8660134898
 Se        11.4668996006        1.3253660025       12.5463190602
 Se         2.9376462139       12.2421128543       12.2773033300
 Se         6.2072600810       12.7372440441        5.1747684784
 Se         7.0134763518        9.6554073508        8.7963565635
 Se         7.6957283650       10.9625773154       12.5730670826
 Se         9.4292414849        7.2013303487        4.6445171941
 Se        10.4742894301        7.4929463009        8.6980793441
 Se        11.3623201753        8.7213291343       12.9217842528
 Se         8.5569739547       10.6761429438       17.2163686746
 Se        12.7058445915        4.9785405174       11.1564870404
 Se        15.8958108349        7.6711387033       13.6773768450
 Se         6.8084563157       16.4708756475        5.9202665216
 Se         3.9249997792       14.7953231473        8.6351847794
 Se         6.9623862899       14.6451389783       10.7958760181
 Se        10.1853779964       13.7179768422        3.3656226544
 Se         9.6796494616       13.3901776360        8.3682489768
 Se        11.1712175510       12.5731510300       11.6398173423
 Se         8.9375414555       14.7145388118       14.9201334991
 Se        16.2424907516        8.9839361208        6.2939744871
 Se        12.6968439749       11.5480518902        5.7861069846
 Se        15.3617510212       12.0626426758       12.7446053652
 Se        12.4742252208       11.9165725810       15.6153964925
 Se        13.5387599373        9.6281790351        9.6279791046
 Se         8.8753365921       17.8914428805        9.7610264860
 Se        12.0315920133       16.5939719344       12.7766424540
 Se        11.3521583035       18.0017123879        6.6551691306
 Se        13.0320955670       15.5571434113        9.2568341717
 Se        15.7017221802       13.0000796913        8.3127567416
 Cd         5.1126505740        7.3434016062        8.6947308074
 Cd         8.5716905964        5.5301794799        8.6336062723
 Cd         3.4146632071        6.6440464386       11.6357984186
 Cd         3.3188497799        7.3388355698       15.9160035657
 Cd        11.2609985743        2.6432508243       10.2914407912
 Cd         8.3720286268        0.9285599801        8.6727064685
 Cd         4.0967389762       13.5527954324        6.4061910810
 Cd         6.7972773570       10.3275226035        6.1752209111
 Cd         5.2713206616       11.5160802821       13.3336864586
 Cd         7.1883836269       12.4214016409       15.9907989936
 Cd         6.7894940428        7.1949415084        4.8853823285
 Cd         9.7454186171        8.8834736351        6.6546193341
 Cd        10.9698242091        5.9275649989       13.0294209927
 Cd         9.2648326118        5.2058564678       15.9514269695
 Cd        12.9492783241        7.0593330294        9.6607534928
 Cd        13.3262740989        7.8820785514       14.3639079788
 Cd         8.0738016318       15.0077030600        4.2669565314
 Cd         4.4253326185       14.3735469000       11.4588127831
 Cd         8.9804599122       13.5008152741       12.6580415876
 Cd         6.4600218222       21.6997015662        6.2369353734
 Cd         9.7181101052       12.4155415078        5.8337048101
 Cd         7.7639627719       12.1041241090       10.0014979659
 Cd        11.4288007963       15.3563928393       15.0523984445
 Cd        14.2734425567        9.7987163450        1.2834114795
 Cd        14.6494257314       10.6119185569        7.4316119053
 Cd        12.8039365234       11.0360293435       12.8088485922
 Cd        13.2532477394        9.8753645644       17.1802632210
 Cd        15.4358430753        9.4781692239       11.6122170669
 Cd         8.5897525822       18.3385800968        5.9695824381
 Cd        10.1584473901       18.5253393633       11.9743371097
 Cd        13.9399757152       17.5001157634       11.3330532543
 Cd        10.5445604342       15.9831594125        8.3463426425
 Cd        17.0304945429       11.9402093577       10.3104043427
