438
 i =     6300, time =    12600.000, E =    -10932.3631177062
  O         4.2002801804       16.6701201671        3.5273332087
  O         3.5876726377        8.7592812679       10.3202454046
  O        13.9836467827        1.2445027126        1.8923724081
  O        12.0877401942       15.5755311897       17.1290604472
  O         1.6443229694        7.2694732982        1.8499531910
  O        15.8410596600       16.4828913987       11.9733211471
  O         3.8750208538       11.2897289580       18.9428458317
  O        17.3014618742       15.8650757552       20.0902567310
  O        15.4819233495       14.0792186048       20.5782595713
  O         1.7871481907       15.8600753273        2.5020747238
  O        11.3138521326        7.3388091327        0.7955761532
  O        18.1222480077       13.8643009915        2.1625740537
  O        10.8760108507        6.3721344041       16.7609387605
  O         1.3832140377       14.7514794104       18.7588129801
  O        17.8994569675        3.1347129862       18.4143072365
  O        12.1613660664        1.8944667278        8.6688285771
  O        13.2837764383        1.3599853318       18.6200525990
  O        17.3586034657        6.4078496775        1.3854546135
  O        10.6867529491        0.6844099702       15.8710785758
  O        15.4148851391       19.4228628941        6.2642220379
  O         4.7947487607        8.3397772671       20.2176096965
  O         3.0114930463       18.9201924652       12.4897487850
  O         1.3074087961        7.9563132078        9.1461734790
  O        16.4037926656       16.3637434446        7.4270818324
  O        17.2258489827        3.8059692933        1.3978078288
  O         7.5622869088        5.8165073480       16.9235474308
  O        15.7477662494        1.9785340653       19.2768142335
  O        -0.1403847525       18.5909357516        1.9877425739
  O        -0.1686209259        4.2313883801       13.8680101443
  O         2.3632802146       17.7913870478       17.2346579245
  O        11.8944256218        3.9102088314        3.1799703304
  O         0.7089329696        2.4859280842        7.7258604165
  O         4.3795219901        3.0580391918       14.2540949751
  O        16.8097783290        4.7637112362       10.8066259429
  O         5.5226008594        5.1682698219        4.0420802461
  O        11.5920069168        4.1280863470        5.8305022165
  O         4.2508655960       18.6347100886        9.3300479764
  O        14.6766192493       15.4205187764       16.1836058933
  O        17.0439564708       11.0410220760       19.2253769906
  O        15.1622213892        4.9840187001       19.9909335780
  O        18.9275453383        3.4657954731        5.3986748339
  O         3.4973837399        8.2760956255        7.6488819338
  O         4.5862769709       17.5237414305       18.5127132970
  O        13.3692958833        7.5825857142       16.6911211930
  O         2.1105747751        3.2990004292       15.1716971110
  O        15.9297292501        5.0704695299        3.2196916637
  O        14.3783767115       11.7217597561        1.9798548937
  O         9.5450340446       19.0185594572       20.5747307585
  O         5.8521649061       19.5934539680        2.8315397004
  O        17.0959812340       18.6588146787       12.6705185519
  O         5.2157773393       12.5529367076       15.4164844657
  O         0.6939922811       16.1072034973       16.4337883934
  O        11.3529285323       17.9749732677        3.1731536197
  O        17.7532314503       11.2436170537        2.4327447455
  O         9.6181847157       16.4681238596        2.0148243345
  O         0.5668639745        1.6785510068       13.6446317669
  O         7.1723123075        2.9697955935        4.1362133979
  O         0.6682066225       18.7321610879        9.9931708801
  O        18.0376328108       20.6272801415        0.9368694270
  O         3.4471450343        4.8784008523        1.5367450178
  O        17.5852862247       13.7018685408       14.9659090927
  O        -0.1442025388       13.6083777407       17.0773543513
  O        14.7624783567       12.1959909903       18.7901876250
  O         0.9311188683        7.2210924533       11.7559038420
  O         8.0322004978        2.7268798305       19.8733503097
  O         0.2994297337       11.2011882070       19.9251198355
  O         3.6643581530        1.8744011097        9.4855010945
  O        10.1337824561        3.1782013168       15.2173248594
  O         0.7332864841        7.5133095870       18.6600763607
  O        12.9199891235       13.6619032355       20.2620870019
  O         5.8853754882       19.4006036859       14.2102939429
  O         3.5718328060       11.8286059029        2.1566700010
  O        14.2564937133       16.4281719738       18.5222923097
  O         2.7010831327        2.8309206208       19.5261730734
  O        19.6878680192        9.7857984137       13.9380219002
  O         7.2471832150       15.2961931970        2.4706549740
  O         0.3183576865        7.5268856784        4.1806838586
  O        17.6577927837       17.4544330592       10.3105921462
  O         8.9991584151        2.2410417476       17.3888990295
  O        13.9923752271        5.9559087736        7.7798436850
  O         2.2026807148       10.4349992368        8.6220190884
  O         2.1880872873        9.3553166646        3.5003540627
  O         8.1415341862       18.5991927731       13.2870874190
  O         3.3830117296        0.6306893566        7.0638952944
  O        12.6561076502        5.9140142989       14.7637341187
  O        12.2987414659        9.8887124314       19.3218641804
  O        15.7002825614        8.0703292666       19.3127266428
  O        10.1839694243        9.8237288273        1.6204283087
  O         7.1522610570        1.7391095718       12.5722573546
  O         8.6729643138       20.5069968490        6.5576397509
  O         2.8941356756       11.4972779339        6.2801179876
  O         2.8020292783        5.1218643793       13.4364992577
  O         5.7721047257        5.9882774908       18.9751201221
  O         2.0321974962       17.0864204956        4.8970990756
  O        17.5259431721       20.1524748281       17.0379211662
  O         2.4834833366       14.1511352263       16.4481041796
  O        -0.5661199979       18.6311240670       18.6871304299
  O         1.6889239746        4.6475407307        6.6773241522
  O         3.7105468088       20.1479525242        4.4045371241
  O        15.1980746330       17.7718345356        4.1118299157
  O         9.3546817989        4.2753417672        2.3539988495
  O        12.2312737762       17.7137700642       19.7303906277
  O        14.4217329065       16.8025928883        1.7413632362
  O        16.7990870106       12.7782894032       17.2800517481
  O        13.7161193022        6.3574280239        4.3797874730
  O        17.3936006750        9.7585974198       10.3170230945
  O         4.9413932676        8.2002523191       17.5087358401
  O         1.1914524448        5.1120104757       19.6854348552
  O         0.3088112320       12.5098921907        3.6987184928
  O        18.6364665036        6.5416960391        9.7436276360
  O        14.8274637266       18.8204240501       19.5120587803
  O         1.8491311422       10.7630656728       16.0077407895
  O        -0.2241369306        2.6365759910       16.0643628695
  O        14.3035502056       18.6527703191        9.4410501192
  O         5.9643767636       11.3330710623        1.2469935790
  O         8.7714187949       18.3811405329        3.6903326979
  O        15.3851134105        3.6401729066        7.6559896075
  O         3.1207072814        6.7671752433       18.8271271482
  O         0.6208752920        9.9672483680        6.3816511683
  O        12.6344928230        1.7377637967        5.0383967578
  O        18.5826615709       17.9038603738        7.9298318045
  O         9.4109237877       17.9435999301       18.1021228888
  O        16.8263263485       19.9757157952        4.0358460357
  O        18.3438650943        4.0797017420        8.6204871631
  O        18.8671210019       13.0928103280       11.1808264945
  O         3.9563922887        5.1764361698       15.8726239092
  O         4.5236253777       17.0301677783       14.1375161575
  O        15.5226489986       10.3663903231       17.1016817829
  O        16.3654688628       15.5789546686        3.2206004379
  O        16.3663218083        1.4070198358       14.1489503474
  O        15.6713801438        3.9870496901       14.0199449040
  O         5.8546919500        1.1544396744        8.0698164272
  O         1.9901764513       17.5782059257       14.5236445563
  O         7.5804516488       17.4184315531       20.1674010592
  O         7.7692851092        7.7603177018       18.8609478523
  O        13.3890954176       17.8222880823       16.3009223693
  O         1.8428791914        2.1239858712        5.4295864642
  O        16.5634528997        3.1966744054       16.2874988015
  O        14.0975650719        3.7855047732        4.4986831332
  O        -0.9324972139       16.3479715276       12.7056526461
  O        18.1668545873        8.9250624836       20.3811885370
  O         0.4819764023       15.9739606969        9.4005421003
  O         6.2985731912        2.4771453260       17.8320177336
  O         6.4929614816       17.2776225213       15.7885420335
  O        17.2032636181       17.5739973441       16.7909593834
  O         4.4670318363        2.8537668717        6.0057023885
  O        15.8912794725        1.3473204273       11.5748311359
  O         2.8838126683        6.8134597137        4.4023144809
  O        17.8598228315       20.8757404092        8.8055050825
  O         0.1473377353       18.6757340603       16.1013513184
  O        15.9802532799        8.5893307991        2.5911247176
  O         1.8795657407        5.4875314656       10.1928906342
  O         1.2518053603       20.1571011062       19.7593928235
  O         0.5936814118       12.4069493360        7.5087235003
  O         6.8272046311        4.4076188208        1.9990077712
  O         2.8638070207       16.1485132872       12.2175524134
  O         3.4807408283       20.1422219409        1.8192504293
  O        11.3248649306        3.5596492476        0.5994640632
  O         3.5097236280       19.9649673016       18.4465197531
  O        16.6259716177        5.9714912163        8.3519024579
  O         2.8266174831       14.4606000436        4.5866947740
  O        12.6635829867        9.0126768488        2.3918658359
  O        13.1539444292        5.0387347763       17.3240485280
  O         8.5881325521       14.8700966085       19.4617670359
  O         5.7431798921        8.9399791581        4.5670214061
  O         7.5739202713       19.7810795736       18.8872640781
  O         8.3146491891        5.4068411373        0.1517824565
  O        14.4806053080       18.9149692412       13.1295780480
  O         1.2550979125        3.4412343729        2.4297074231
  O        18.7449054104       15.7100490955        6.2099003764
  O         8.1160643001        1.2662349373       15.0777584351
  O         9.0630574884       10.4740777728        5.4460086009
  O        17.1379003795       12.8447628624        4.4283922168
  O        18.2082976502        6.6543875547       16.9682054040
  O        19.2341385877        8.9663121675       16.5447042774
  O        14.2175351402        2.1637524176       15.5215490235
  O         4.4062811192       19.0571164213       16.1676992098
  O         0.3113254938        2.6125187762       10.4152691195
  O        13.7398688135       15.4642527689        4.0792237822
  O        17.5419632097       17.9006108173        5.4469066064
  O        15.8058346874        5.5092266358        5.8044312349
  O        10.3620108286        1.9094729992       22.1383484051
  O         4.8790817462        2.8039629886        2.9116238950
  O         1.4916452352        6.6770150457       16.1792409376
  O        18.5716108728       11.3760158609       15.8000043387
  O         4.7297152558       13.7145354437        0.5227736824
 Na        13.4542734522       14.2786681630        6.4711440643
 Na        -0.0859062333       18.9140092313       13.6415036255
 Na        14.3555013938        3.1907549551       17.5087759956
 Na        14.3115570604       17.6209911071        7.4602258927
 Na         4.2621337885       13.1367778602       17.7643952525
 Na        13.2436156213       19.3087520420        3.6530348618
 Na         5.1796618680        4.0256754310       19.6916961093
 Na         2.0341937237       18.5841860036        3.1202380877
 Na         6.7869629201       16.5651522286       17.9156443727
 Na        18.6587994733       21.2466891786        3.4576992940
 Na        19.0593586140       16.8181560823        3.8982735649
 Na         3.5275172550       15.6367626953       19.9128451239
 Na        14.8153956901        5.5427709316       15.4102115184
 Na         1.9835259446       20.4745350673       10.8282914560
 Na        11.5034877277       18.7733253807       17.6837594735
 Na         7.1657932739       16.7355017357       13.1921385379
 Na        13.6071523238        3.6042253054       20.7917296541
 Na         4.8526428967        0.3311057715       11.4879469540
 Na        20.2403564233       14.0523997541        5.2405720179
 Na        11.6397727734       19.7392781811        1.2178937811
 Na        17.1902874831       14.3201646139       12.4388345423
 Na         2.1590046744        9.9439106419        1.2985845241
 Na         4.3019853077       11.2248457227        9.8558320484
 Na        12.3066652584        3.2760561252       14.4019592648
 Na        12.9267069566        3.9350025415        7.8708002008
 Na        14.1130979710        8.5983612621        4.0405460455
 Na         0.7882542384        6.2887729481       13.9253387794
 Na         2.4585125187       12.6080249676       14.8691565005
 Na         4.1389221838       17.8053482180        5.7365141018
 Na        18.2668909596        5.3591013103       18.8123349439
 Na        12.1110612921       15.5417658201        2.0216918883
 Na         1.5263360965       16.2758336986        7.0883915683
 Na         8.2098349453       20.5981831298        2.9867584335
 Na        15.2380776240        2.1503362217        3.6163141645
 Na        19.3458660092       11.9135002078       12.9694255635
 Na        10.5203369430       15.9747574849       18.6443799014
 Na        16.7896483815       18.5447454611       21.2544629550
 Na        12.7890577089       19.3244620412       14.6926734818
 Na         2.5508637553       17.3718354713       10.0487616423
 Na        14.6654005768       16.9115844195       14.3323651728
 Na        12.9061735216       14.6362781924       11.7160964990
 Na        18.4647924234        8.7286426166       12.1084678225
 Na         4.9206099843        9.7729189577        2.4733638477
 Na        15.2579004177        5.2984504816       12.1653300363
 Na        10.8945855050       10.1122368236        3.7631822636
 Na         7.1334892254        8.1459878016       16.3225671138
 Na         5.6922067002       18.7306549842        0.7785951598
 Na         7.1879888989       13.3087691017        0.8816881986
 Na        16.3475193406        8.2109281185        8.8180516905
 Na        11.3022427138       15.9318649195        4.6191129409
 Na        16.5536012638       18.9861004581        8.7534741102
 Na         4.8324503973       14.1637355362        3.0088873307
 Na        17.1823098136        2.2976840550        6.5933266071
 Na         8.6909378639       18.1075214621       15.9419739494
 Na         6.4716543898       17.3484658097        3.3844681395
 Na         4.3740548328        6.6709105766        2.6060500301
 Na        18.2280928613        5.5184255833        6.3406738204
 Na        18.0610439992       11.9041400460        6.4444125028
 Na        17.4298081821        7.7750251057        4.0398328175
 Na         2.4243558076        3.8393221178        8.7405796330
 Na        13.3867958672       13.7616930156       17.7136695550
 Na        10.0988408517        8.1468178255       18.1181104548
 Na         3.0637603461        3.9953241703        3.8160534210
 Na         1.4343732290        7.3152627727        6.5298912776
 Na        18.5161961833       14.1426486832        8.2694767582
 Na         1.8812937366       13.7134591554        1.8758459368
 Na         7.8243679803       10.5028602023        3.0313393975
 Na        19.4316403418        9.9521781352        4.1958071792
 Na         0.8137294793       15.2927225921       11.5830097057
 Na        11.6620698467       18.9161164404        9.1986503575
 Na        17.0898957352        8.6040723039       17.4874677661
 Na         1.1645592938        4.0976872174       11.8991462576
 Na        16.5901150345       14.5781907563        5.6490793160
 Na         9.1014642053        4.3584061146        4.7512188684
 Na        -0.5544124054       13.2895221932       19.5574531413
 Na         5.7030690919        3.6095294723       12.4971099088
 Na        10.5788906690        9.7566573036       10.5545966337
 Na        10.8166236320       19.8073470178        4.4537929259
 Na        20.1742830368       19.6444014958        7.6252048589
 Na        15.4796125273       15.3571765364        9.3429558351
 Na        15.8289767175        2.6947205143        9.7729725779
 Na         3.7124834022        5.3754962459        6.0059794544
 Na        16.3129334960       15.6250403117       17.9918288357
 Na        10.8891512580       11.8075189873       19.8909390919
 Na         5.3601992791        1.8805596302       15.9229537029
 Na        12.1689010648        6.2388752782        6.1550088456
 Na         9.0893876660        2.7477463305       13.0136264347
 Na        11.4235806784       22.0735260383       17.9323436043
 Na         6.9856937528       14.3884547690        7.7360333675
 Na        10.6071395728        5.3829071866       18.9598866027
 Na        11.8624430431        6.2164708448        2.8983115495
 Na         5.8854460294       17.1621342923        9.0110316830
 Na         4.3431508519       14.8579671187       14.9972038170
 Na         1.6807234019       11.8723609611       18.3089769983
 Na        13.0423416565       12.8362665677        3.4367557616
 Na        13.7822876608        1.1027612046        7.2479272384
 Na        10.8044173937        2.1505638657        6.8119511512
 Na        -1.1996529904       20.0486927433       10.9662516049
 Na        17.5657689232        3.1905927860       12.3057500253
 Na        17.6315981588        5.1439821811       15.1913779299
 Na        10.0374460573       10.5608475290       14.7912095615
 Na        -1.3956052480       15.9738651095       15.0437726843
 Na         2.8263364397        1.1525196499       14.3476696107
 Na        12.0722444343       12.2561899288        8.7339597427
 Na        19.2325218804        5.3484661746        2.7871608554
 Na        15.2238279610       13.5565677501       15.1951966150
 Na         0.1050399064       16.5381806474       19.8130865694
 Na        15.8166543698       11.1904140899        3.7921380603
 Na         3.7633293411        9.1672262729        5.4933186406
 Na         2.4752854133       11.6332959389        3.9547685653
 Na         1.9326311628        4.4435332896       17.0960335626
 Na        18.9398110345        9.2934151614        8.6297325006
 Na        16.4042452369       10.5445954730       14.9192908553
 Na         5.9978244727        4.4436968750       16.6148251105
 Na        14.0700639913        6.5832820031       18.8949094506
 Na         6.1875645623        9.9154135855       -0.5644364066
 Na         1.3492577591       12.9712658269        9.6856210368
 Na         8.6059059449        7.7806349259        1.4819179170
 Na         2.1153214770        9.4713784215       12.5616184975
 Na         5.4317205042        3.4224301767        8.8351227134
 Na        14.9890789581       19.4631611941       16.9321171503
 Na        13.8013857723       20.6980690385       10.7734305064
 Na         6.9176564425        8.2176524226       12.3401911126
 Na         4.2292301224       10.4208071166       16.5652708022
 Si         0.9223036894        3.2853790075        6.2235636920
 Si         8.1301281511        4.1782909681        1.2133268164
 Si         4.4977512296       12.0964932705        0.8771718701
 Si        17.7499460408       16.8580311678        6.7300115848
 Si        17.1906610186        2.5139805365       19.7886023517
 Si         1.8538258404        7.7454720849        3.5701510769
 Si        18.2389771289       12.6287079434        3.2636307412
 Si         3.4311693373        1.6185714775        5.7809363749
 Si         6.0750507234        3.8743442406        3.3639301904
 Si         9.5439005152        1.7955135071       15.8167142646
 Si        17.8033656078        2.3587159005       16.8805102655
 Si         9.8802535007       17.9992139560        2.5606272896
 Si        16.2527866883       18.8143456313        4.9452100955
 Si        14.3521446273       12.9061598574       20.2794344737
 Si        19.1366239856       17.4854368194        9.4966922743
 Si        10.7307622218        3.2828136503        2.0493403894
 Si         8.6204942182       18.5402885658       19.3387365587
 Si        12.4434627361        6.1822175681       16.3475543213
 Si        17.5854320521        5.2954941756        9.5444604595
 Si        11.5092757860        8.9490745911        1.1694935199
 Si        14.8439305773        5.2653182412        4.4937168885
 Si         3.0589539110       17.4237396941       13.1649605988
 Si        18.0400818914       12.8816194916       16.2284946188
 Si         2.8037482656       20.6480438158       19.7509415255
 Si        13.7728521380       17.4155087177       19.7145999105
 Si        14.3687651848       20.3934657212       19.7346474368
 Si        13.5889660615       16.3638455503       16.9666125793
 Si        18.2668261746       18.6651812160       17.1137547374
 Si         4.5956248259       20.5065726604        3.0348661664
 Si         0.9115295027        6.7495126225       10.2756644083
 Si         8.2860752140       15.8822135926        1.3133787739
 Si         3.7989909976       18.5266859278       17.6333582674
 Si        18.2613356397       10.6435245404       20.3377575283
 Si         7.7127004756        1.9499763026       18.4076550302
 Si        19.6502095269        7.4072365655       16.9837061126
 Si        16.8330989366       14.8502352094        1.7852232860
 Si         2.7379448972        8.9203795304        8.9531267420
 Si        16.0127242870       11.5381575353       18.0495902925
 Si        18.9769852603        2.6141047883        9.0046254524
 Si         0.3977212586       10.1925082270       15.5771711554
 Si        15.8068220353       19.7919715880       12.8915115409
 Si        15.3895772027        5.2115220309        7.4649936746
 Si         3.4126598086        4.2650187296       14.6070964510
 Si        15.5776802463        2.6464844337       14.8779586164
 Si        -0.1430697437       19.4475787632       20.0486809713
 Si         1.2422157102       14.6979852483       17.2194218253
 Si         1.7203451272        6.6982396531       19.6444221976
 Si         7.3560558300        6.2909250196       18.4765469631
 Si         4.3363381778        0.6936521847        8.5816396392
 Si        16.2591120336        5.1603847913        1.6519826644
 Si        12.4547160516        3.3244724510        4.6898754020
 Si         2.7492049098       16.0233294400        3.8524710326
 Si         0.5592752624        2.9869858662       14.6170512576
 Si         4.6701668085        7.4632870528       18.9325136837
 Si        17.2944739526       17.1466327597       11.9348587213
 Si         5.3394204611       18.1779596653       15.1180006276
 Si         1.5138213307       11.0915617947        7.0843624858
 Si        14.7926757628       16.4151036779        3.3038981115
 Si         7.4001464055       19.9951907138       13.7319753505
 Si         2.1686716805        4.0716218413        1.2659981116
 Si         1.3452890601       17.4812851398       16.0688455448
 Si        16.7441463767        8.0865793877        1.2238490077
 Se         4.6973023761        8.7659416906       13.8763718004
 Se         6.5377244326        5.5244035456        6.9626919756
 Se         5.7338173354        6.0286526243       10.7925433190
 Se         8.4959730319        5.9222744459       13.1265223567
 Se         8.2511253304        3.1427884299        9.9554152657
 Se        11.3628287381        0.9865137314       12.3061452796
 Se         2.9984552519       12.4139823188       12.2809368746
 Se         6.0870546501       12.7530488173        5.0934378721
 Se         6.7795820442        9.8281353707        8.3879591963
 Se         7.6335817663       11.0945646487       12.4491942230
 Se         9.4723485679        7.3264846831        4.3095119003
 Se        10.2905847111        7.3322065404        8.6532467751
 Se        11.4859423263        8.8971250186       13.0762442758
 Se         8.5123676410       10.8047069188       17.0494631895
 Se        12.6068319742        4.6468350437       11.2317116791
 Se        16.0973965817        7.9448326528       13.6667248560
 Se         6.7506140551       16.5735669425        6.2231594179
 Se         3.6054224817       14.7527948918        8.5347430839
 Se         6.9801503991       14.6971681560       11.1445628538
 Se        10.1162535603       13.3832143645        3.4616674055
 Se         9.4450447042       13.5385095347        8.3547616687
 Se        11.0534124828       12.2319185744       11.4567922103
 Se         8.7488008794       14.8665212745       14.9174972769
 Se        16.5888980125        9.3256795058        6.1151255574
 Se        12.6648383394       11.3634770927        5.8406338086
 Se        15.3324755550       12.0836704094       12.6029184954
 Se        12.4074442663       11.8587764595       15.7951827009
 Se        13.4880697819        9.2785179317        9.4759271411
 Se         8.6265932017       17.8931206896        9.9338556501
 Se        11.8850038610       16.5847485079       13.0953029911
 Se        11.2804165992       17.7971139933        6.6434542458
 Se        12.7248079906       15.3294499527        8.8206155858
 Se        15.8699092032       12.7582688830        8.0680450664
 Cd         5.4913283984        7.5698546611        8.6917631793
 Cd         8.4710487710        5.6046573422        8.8512703053
 Cd         3.4846976749        6.6942362092       11.8190014183
 Cd         3.6167999625        7.3583968698       15.8346215969
 Cd        10.8554936055        2.5275260322       10.2017708166
 Cd         8.0660324659        0.8202804947        8.7304356589
 Cd         4.0210086245       13.4738420524        6.3238821276
 Cd         6.9107700361       10.3800946448        5.7741436445
 Cd         5.2008841540       11.4603587241       13.5022006569
 Cd         7.3811841517       12.5423174629       15.6057333141
 Cd         6.8567556871        7.0945096659        4.8724978425
 Cd         9.3511933738        8.6857135126        6.6276017590
 Cd        11.1101419920        6.3155282188       12.7683495836
 Cd         9.2900642839        5.2272086980       15.5284867436
 Cd        12.8329920013        6.6231135213        9.6633088801
 Cd        13.6360449250        8.1108186797       14.2088175495
 Cd         7.9296315991       14.7079173374        4.5382607801
 Cd         4.3813081178       14.5000475171       11.0928682564
 Cd         9.1718023749       13.8212474833       12.5109227123
 Cd         6.7214326594       21.4002375101        5.9330755424
 Cd         9.9739070202       12.3773077523        6.0018590926
 Cd         7.8993392581       11.9798750152        9.9183068451
 Cd        11.2363901702       15.2161433824       15.2257422425
 Cd        14.3607818309        9.7127803371        1.1040206343
 Cd        14.5295404501       10.3107107928        7.3033779418
 Cd        12.8345944292       11.3728827224       13.0932310643
 Cd        13.2177940621        9.7574791262       17.2532962726
 Cd        15.4388688524        9.7431988291       11.2821428910
 Cd         8.7760390281       18.3579041517        6.0144439467
 Cd         9.8844768016       18.2017348549       12.2692141328
 Cd        13.8817086876       17.6057916664       11.2816103291
 Cd        10.2024321596       16.1497158280        8.7191605960
 Cd        17.3366907616       11.9224053567       10.0448050529
