438
 i =     6800, time =    13600.000, E =    -10932.3439608408
  O         4.1171380703       16.6518321476        3.0795916863
  O         3.6418806402        8.7924624070       10.0440393593
  O        13.8544542539        1.1160214490        1.8252350713
  O        12.1979451550       15.6704385105       16.9860978069
  O         1.6517194960        7.3708399595        1.5729886174
  O        15.9534907915       16.3823993997       12.1136974509
  O         4.2618498697       11.3426436087       18.6035070964
  O        17.2665461242       15.6106404005       20.0061708853
  O        15.5608370367       13.7881505060       20.5091370745
  O         1.5773967345       15.6294473717        2.5795991890
  O        11.1746950123        7.2086772929        0.8172720340
  O        18.0622026608       13.7067857926        2.1365061438
  O        10.7041974718        6.3178509318       16.9223414789
  O         1.1734886657       14.5602803352       18.7426502215
  O        17.7848037581        3.1578743560       18.4129431928
  O        12.4543630892        1.7609542174        8.7571128643
  O        13.7499313355        1.3764138223       18.4411512944
  O        17.1138189707        6.3829706606        1.3336867480
  O        10.7480204278        0.4751244665       15.9595209500
  O        15.7056181767       19.3527386120        6.2865813106
  O         4.7908232026        8.2342593334       20.1338955191
  O         2.9370364690       18.8517930735       12.6483885871
  O         1.1466055773        7.9689882700        8.9207466553
  O        16.2866381919       16.2369743929        7.2039358361
  O        17.2726743564        3.5963732252        1.6593307721
  O         7.7071863186        6.3003189323       16.7068844398
  O        15.9808197203        1.6458874270       19.8311139740
  O        -0.1057760858       18.5382993911        2.0329335899
  O        -0.0441169167        4.4191836585       13.7594906875
  O         2.3740230936       17.6211399860       17.2647642239
  O        11.9678060261        3.7303055211        3.1946744784
  O         0.8139055608        2.3874124847        7.7343397967
  O         4.2794648996        2.8520132227       14.1209994814
  O        16.8681961786        4.6162940359       10.7072621041
  O         5.6990365457        5.2501171209        3.9530430767
  O        11.6738916057        3.8129108429        5.8283197748
  O         4.3186057997       18.9479957217        9.3541974588
  O        14.6341239259       15.3618293517       16.0184731232
  O        17.1740611149       11.2992810984       19.1821985462
  O        15.0660770858        4.7808468072       19.9963187785
  O        18.9534775192        3.4239155380        5.4392107572
  O         3.4128361611        8.0520186181        7.4397122114
  O         4.6872491264       17.4426095247       18.3797762009
  O        13.2103300798        7.4673126561       16.6494329954
  O         2.0717464399        3.4160684394       15.2450750717
  O        15.8618946653        5.1176451317        3.2631505037
  O        14.4211476927       11.6997808989        2.0710068597
  O         9.5651889849       18.9163890086       20.4489521033
  O         6.1062320234       19.6103577114        2.7435676157
  O        17.2278300716       18.8052223077       12.6845409746
  O         5.2329162644       12.6967552823       15.2991875483
  O         0.5297706312       15.9345329158       16.4686225591
  O        11.3912230399       17.9819883014        3.1418473577
  O        17.8447715659       10.9703070948        2.3587916450
  O         9.6942246053       16.3503031242        1.7633581867
  O         0.5745358341        1.8057278494       13.7475328024
  O         7.5406634842        3.1729114820        4.1851672712
  O         0.6274611667       18.6957771345        9.6600789815
  O        18.6367225939       20.7747367261        0.7486321036
  O         3.4303031171        4.6576695466        1.3401082866
  O        17.6737634071       13.6242811401       14.7179338980
  O        -0.1906456686       13.5073194262       16.8888989997
  O        14.7165613436       12.2258713923       18.7120583999
  O         0.8778490722        7.8481301858       11.6334824784
  O         8.0782052006        2.6368593235       19.9029716426
  O         0.2698714713       11.0272981850       19.7058706415
  O         3.6723200701        2.0974489650        9.0975041910
  O        10.2564076044        3.1081720447       15.2827083080
  O         0.7578983453        7.5340715609       18.4707980952
  O        12.8417969646       13.5443310507       20.0475828496
  O         5.8775319387       19.4362929393       14.2746957566
  O         3.2378166727       11.7151263001        1.5668235699
  O        14.2716806603       16.3569378542       18.5816853622
  O         2.5751727496        2.7618894480       19.1738611576
  O        19.7145987837        9.9229335241       13.9039582348
  O         7.1241372379       15.4217942368        2.4309919657
  O         0.4928141631        7.7662264971        4.1130517212
  O        17.6707628145       17.5163244332       10.3835224139
  O         9.1485688945        2.0572820104       17.4104241173
  O        13.9043145731        6.0585357216        7.8293919010
  O         2.3360750777       10.3915347098        8.4780567083
  O         2.7685975909        8.8701228110        3.3937429531
  O         8.3075193568       18.4977217802       13.3989502074
  O         3.6176664379        0.4417479499        6.8188182165
  O        12.4969409276        5.5647406343       15.0319560821
  O        12.2115060326        9.6317578234       19.2264556733
  O        15.4335435102        8.1126194100       19.3573492863
  O        10.1405951429        9.6301208896        1.6882508011
  O         7.1503065528        1.6168803711       12.6812062642
  O         8.6677860278       20.4547556342        6.3762318456
  O         3.0030963282       11.4179791156        6.0820407697
  O         2.8614129253        5.0717067216       13.2839895670
  O         5.9301899911        6.2394973390       18.6794142327
  O         2.0373756418       16.9118927886        4.9462045850
  O        17.8913329979       20.1929366517       16.9608775597
  O         2.5384295964       14.2435513173       16.4721487425
  O        -0.3144742665       18.4966266276       18.7578961241
  O         1.9041573630        4.4114265184        6.4065122384
  O         3.7390909938       20.1233837326        4.0926688542
  O        15.2418985174       17.6769949586        4.1519045862
  O         9.5725730752        4.4472458482        1.9071725785
  O        12.4207839964       17.8022520167       19.6769534444
  O        14.2412790334       16.7239637243        1.9238170211
  O        16.6347199649       12.7348570033       17.0382584960
  O        13.6165208610        6.1667571930        4.2748585276
  O        17.1944636047        9.7555230665       10.2188181689
  O         4.7765679268        8.3319892251       17.4106697388
  O         1.1893480247        5.1327415977       19.5830205396
  O         0.5542615372       12.2630341876        3.5731414345
  O        18.4845500688        6.6277035574        9.8199495260
  O        14.9389182938       18.7091939578       19.6091379801
  O         1.6903811991       10.6302654413       16.1837690843
  O        -0.2544756887        3.0953416282       16.0891219669
  O        14.4955180380       18.5093993204        9.4356602695
  O         5.8989075619       11.6676187022        1.4391935966
  O         8.8908053399       18.5435715813        3.5419599552
  O        15.0798336158        3.6027726596        7.6673882684
  O         3.2327078773        6.6737396168       18.7473400122
  O         0.6463114798        9.9414440031        6.4726046429
  O        12.6097408867        1.6045826632        4.8797310915
  O        18.4605580458       17.6967492578        7.7773550871
  O         9.2301574103       17.9293387652       18.0165159235
  O        16.7861860301       19.9551090325        4.0252988702
  O        18.6172977937        4.2271781266        8.6748456773
  O        18.9190695398       13.1481891357       11.1169136848
  O         4.0845939281        4.9658769486       15.8334643120
  O         4.6392986672       17.1585124475       13.9421357313
  O        15.5308866701       10.2386484929       17.1018752367
  O        16.1994457519       15.3301737070        3.2168661956
  O        16.2563525954        1.3522586355       14.1875380576
  O        15.7539585986        4.0644769613       14.0717994863
  O         6.0220999355        1.0655773167        7.9629537450
  O         2.0725875798       17.1355938671       14.4907626762
  O         7.4720907744       17.4239580377       19.9853496369
  O         8.0094709760        7.8654818862       18.9880366186
  O        13.7217007344       17.8985678137       16.3418973327
  O         1.9206112203        1.9113004984        5.4439868127
  O        16.4300978546        2.8459067353       16.2878058600
  O        14.1160894319        3.6208540944        4.5379893766
  O        -0.8807862586       16.5373586505       12.8502574883
  O        17.8300281912        8.9170962899       20.1269278565
  O         0.4764465709       16.0484087206        9.4129478188
  O         6.3765550581        2.5455402506       17.8533972383
  O         6.5676374258       17.2600260849       15.7033544639
  O        17.1339452239       17.6836539154       16.9665845753
  O         4.5632126545        2.7901671343        5.6125102869
  O        16.1202690599        1.5251737135       11.4638252532
  O         2.5106053078        6.1507057020        3.8994523973
  O        17.8636893648       20.9317204025        8.5633652880
  O         0.1774971636       18.4304935851       16.0564544865
  O        15.8768937156        8.5080039128        2.5172361776
  O         1.6683271263        5.5972717603       10.3220484535
  O         1.6824634585       19.6561586904       19.8676623911
  O         0.8995685280       12.5550467762        7.3563642064
  O         6.9762805644        4.5213903135        1.8823322599
  O         2.8672887775       16.2259664054       12.0872414672
  O         3.9615791130       20.4385369534        1.4021282217
  O        11.3602166150        3.1947515476        0.6196411201
  O         3.7044737640       19.9293022064       18.1956812630
  O        16.5662948988        5.7897360738        8.3110563685
  O         3.1626176351       14.4221306867        4.3642487471
  O        12.6082658013        8.8032173932        2.3500898715
  O        13.0062339180        4.9994937928       17.5750653185
  O         8.3464201297       14.9359935003       19.3704584502
  O         6.2174842856        8.9333168433        4.4014913689
  O         7.5860456768       19.8391425968       18.9160403917
  O         8.1541401809        5.0972975425       -0.3670840655
  O        14.5489028371       19.1052515691       12.9388760325
  O         1.1771643632        3.3176389684        2.1638642464
  O        18.6816517497       15.3690528599        6.1724311461
  O         8.3028190053        1.2314913252       15.0670892636
  O         9.1326795137       10.3575433357        5.2214588876
  O        17.4507378145       12.7285635838        4.3660024644
  O        18.1904623791        6.5089277257       16.9662693199
  O        19.0982207937        8.8782122618       16.3743870446
  O        14.0110640534        2.3135512396       15.4016488280
  O         4.2774133975       18.9343373157       15.9983048490
  O         0.4638343844        2.5458415371       10.3512038150
  O        13.7689462253       15.4551777889        4.3210795752
  O        17.6360731785       17.6711368007        5.2752807950
  O        15.6183502515        5.3702616712        5.8899707328
  O        10.2367919263        1.9636718699       22.0374055832
  O         5.2581781194        2.8220965963        2.7256752117
  O         1.4475389467        6.6585720583       16.1089689510
  O        18.4482508091       11.2741935677       15.8125459236
  O         4.4765610856       13.8414763176        0.4615874134
 Na        13.8841918115       14.3894170982        6.5274715976
 Na         0.0352699113       18.9977320811       13.5920548686
 Na        14.7070237816        3.4343226573       18.0615472577
 Na        14.4747883208       17.6382876147        7.0466675460
 Na         4.1681957961       13.2755732226       17.6355313459
 Na        13.3993514491       19.2298074980        3.6944005013
 Na         5.0662858698        3.8418879881       19.6346876209
 Na         2.2033479699       18.6519276438        2.9023160082
 Na         6.7250356945       16.4596865826       17.9226292647
 Na        19.1616601648       21.3856863183        3.4342602928
 Na        19.2510038810       16.6930895100        4.0079351704
 Na         3.3113361535       15.9877284455       19.8099247635
 Na        14.8303084616        5.5211343106       15.8458633895
 Na         2.1371831577       20.2162029628       10.4945227323
 Na        11.5954581560       18.5112106412       17.6279060973
 Na         7.1196323304       16.6327371598       12.9921964126
 Na        13.4561062068        3.5541755033       20.7816740949
 Na         5.0229374851        0.4917292264       11.8456354760
 Na        20.0848747137       13.8076889785        5.3261426391
 Na        11.6361654282       19.9018669311        0.9883382763
 Na        17.0824414678       14.3732835982       12.4535041901
 Na         2.2852603856        9.7137755329        1.2559180244
 Na         4.4905405779       11.0263425532        9.9941277261
 Na        12.1066535694        3.5572954701       13.9911779406
 Na        12.7329129293        3.9040096973        7.8307666118
 Na        14.3372302518        8.3365461077        4.1198938851
 Na         0.9477542798        6.4575679515       13.7199164815
 Na         2.3476977044       12.3889871802       15.1361125866
 Na         4.1056122425       17.7557036161        5.4302931126
 Na        18.4224879503        5.5345712479       18.9996744937
 Na        11.9377318107       15.5635981336        1.6806571620
 Na         1.6700465262       15.8201529497        6.8980838676
 Na         8.2399004445       20.5357762697        2.5378338820
 Na        15.7301825882        2.4000121559        3.2299078921
 Na        19.0820224959       11.9339041922       13.0445064569
 Na        10.3347714980       16.0442340433       18.5584891149
 Na        16.8683898157       18.5993477984       21.2430726593
 Na        12.9487947220       19.6311196570       14.6052692327
 Na         2.4841615088       17.3732061648       10.0376371801
 Na        14.7207478830       17.0164425702       14.3262438389
 Na        13.3682805655       14.1927548210       11.6338797334
 Na        18.3100296590        8.8936579195       11.8528265976
 Na         5.0668123240        9.5695339462        2.5723110298
 Na        15.1710864929        5.0530484099       12.1766941129
 Na        10.9048823311       10.1001649375        3.7681650830
 Na         6.9053153629        8.6247881264       16.3332824419
 Na         5.7104569962       18.8458343808        0.6751026563
 Na         7.1867426882       12.9909312599        0.3637590008
 Na        16.0248221464        8.1406972719        9.0260675092
 Na        11.5799828079       16.0620115516        4.4974032147
 Na        16.4636326171       18.9509471681        8.5575466169
 Na         5.1701600454       14.5440622131        2.6425373838
 Na        17.1712332265        1.8302042843        6.4237620837
 Na         8.9953270820       18.0520716769       15.5711963337
 Na         6.3943038682       17.4486935447        3.3157123461
 Na         4.5725051071        6.4255865341        2.2099237837
 Na        17.9134373159        5.1669606355        6.5140815656
 Na        17.8818902294       11.5026747173        6.4989091207
 Na        17.7865949841        8.5662190435        4.0396465624
 Na         2.4117926869        4.1028632694        8.7708921235
 Na        12.9435233271       13.7221045412       17.6883482485
 Na        10.0093538781        8.4979715466       17.7126721336
 Na         3.1478899903        4.0932874396        3.7015282063
 Na         1.4815291202        7.5433137748        6.4601386687
 Na        18.5842267131       14.3042960087        8.2812567159
 Na         1.6175627383       13.6645393505        1.6973047037
 Na         7.9360461325       11.0702536333        3.0117999318
 Na        20.3696065638       10.2093818467        4.0799241193
 Na         0.6826326311       15.1582169236       11.6906774164
 Na        12.1921676507       18.9790327714        9.0966772153
 Na        16.9632401611        8.4711208195       17.6394476569
 Na         1.3301496756        3.7233136680       11.9123079284
 Na        16.6081279543       14.4163482301        5.6300411011
 Na         9.5758839993        4.0353310302        4.6369430648
 Na        -0.9274737203       13.3043109845       19.2518647744
 Na         5.9419549690        3.5825962718       12.7785974113
 Na        10.4754849973        9.6267370639       10.6796774328
 Na        10.5043351567       20.1348145934        4.3555911976
 Na        20.3126728946       19.3624556557        7.3912770866
 Na        15.6582916013       16.1877307164        9.4526569386
 Na        16.0198099398        2.6621331462        9.6735663175
 Na         3.8520778281        5.6074591069        5.7299943950
 Na        16.4218446000       15.8668773897       18.0976487949
 Na        10.9912349917       11.7352527958       19.6520783023
 Na         5.5642307384        1.7209268689       15.8350043945
 Na        12.1824411748        6.2771522150        6.0799544856
 Na         9.0884671326        2.9801878697       12.9298134057
 Na        12.1876068704       21.9624466640       17.3068315835
 Na         6.8149798505       14.3746354492        7.7743939469
 Na        10.7735758336        5.2986812012       19.0540343967
 Na        12.0002430082        6.4653751167        2.8711430566
 Na         5.8543112848       17.3652834806        8.9444975836
 Na         4.2353232222       14.8385473953       14.8248055497
 Na         1.7757959142       11.5101506587       18.3766237783
 Na        12.7884181427       12.9112510011        3.2978421461
 Na        13.7505308326        1.4796105289        6.8515029966
 Na        10.6603097793        2.0222770142        7.0979067894
 Na        -0.9515354590       20.0625719463       10.8349249264
 Na        17.5228826742        3.3533770428       12.3877661219
 Na        17.5720223790        5.1509503656       15.0957973949
 Na         9.5606372234       10.9605056913       14.8084774678
 Na        -1.3624250439       15.8550383853       14.9649285433
 Na         2.8417766956        1.1634419934       14.2960387710
 Na        12.1711955770       12.5938281227        8.8125175500
 Na        19.7795860334        5.3124030350        3.5423973296
 Na        14.9517311814       13.2782721223       15.3045042336
 Na         0.1317308847       16.2170777209       20.1509224310
 Na        16.0133001153       11.0744503108        3.7861057670
 Na         3.9249586252        9.1239373400        5.2476181979
 Na         3.2198170806       12.1467463557        3.6881570590
 Na         2.0063579374        4.7239385667       17.3467333573
 Na        18.7627752590        9.5102223907        8.5659720464
 Na        16.4287941528        9.8820082964       14.9374957365
 Na         6.1045283375        4.7584246134       16.6068542751
 Na        13.7402770556        6.6772988937       19.0428474084
 Na         6.2716767717        9.8908470115       -0.2040956281
 Na         1.2746833646       12.9730120457        9.7030234925
 Na         8.8952276178        7.5280793056        1.6869508714
 Na         2.1506760805        9.4868531671       12.1647366769
 Na         5.4283318299        3.4463129998        8.8037264219
 Na        15.2503610041       19.2884029348       17.0807980031
 Na        13.8828495095       20.6866872537       10.5132850927
 Na         6.9236482101        7.7697180737       12.0917385523
 Na         4.0953600160       10.2921721841       16.5095570338
 Si         0.9641619246        3.1596929541        6.2785779607
 Si         8.2154415386        4.1335912672        0.9936532624
 Si         4.5436691734       12.1363839508        0.6659173958
 Si        17.7905901613       16.6289944615        6.6491564527
 Si        17.4167044397        2.4316905922       19.7878258046
 Si         1.8818404436        7.5376868209        3.2922555772
 Si        18.3827549857       12.4273128701        3.1266421968
 Si         3.5154804320        1.5617868355        5.5455683751
 Si         6.4064530675        3.9573365846        3.4010215572
 Si         9.6755384045        1.6916218652       15.8788527612
 Si        17.9072317009        2.4298763850       16.8354382451
 Si         9.9371214944       17.9577470219        2.4770048344
 Si        16.3578873861       18.6857678475        4.9633931142
 Si        14.3416996271       12.8096015979       20.2383755828
 Si        19.0580125850       17.4101350477        9.3742535098
 Si        10.8534055483        3.2066070584        2.1030275155
 Si         8.4940514598       18.5661382133       19.2313663702
 Si        12.3205356335        6.0671806566       16.6098949843
 Si        17.6079929649        5.2636228194        9.4896522000
 Si        11.4924019638        8.7824067933        1.1192761167
 Si        14.7956659469        5.1615658282        4.5126760300
 Si         3.1256508754       17.3619278989       13.1747837111
 Si        18.0096116198       12.7889371262       15.9830176664
 Si         2.9161959161       20.5784877433       19.4530851073
 Si        13.9420143844       17.4082617449       19.7917137194
 Si        14.4726083490       20.2731438013       19.7573697494
 Si        13.7229588206       16.4107022693       16.9032549271
 Si        18.3372725254       18.6164648553       17.2519566708
 Si         4.8463593624       20.5706877804        2.8254744118
 Si         0.7425772602        6.9660536806       10.2695257578
 Si         8.1611184209       15.8771469420        1.2609292603
 Si         3.7792682445       18.4498977341       17.5328275180
 Si        18.2220613361       10.5060683782       20.1456497826
 Si         7.7907567660        1.9750619976       18.4085200130
 Si        19.5254568281        7.3338391855       16.8417481673
 Si        16.7630652922       14.6674486903        1.7531966924
 Si         2.6525707018        8.8133962393        8.7679060548
 Si        16.0081081078       11.5206482437       17.9482427688
 Si        19.0452903791        2.6438253453        8.9257878517
 Si         0.2839284097       10.1702438931       15.5059649603
 Si        15.9853342558       19.9363417222       12.7955935300
 Si        15.1954275820        5.1910116845        7.4366868358
 Si         3.3757022033        4.1392644016       14.4945848704
 Si        15.4732957091        2.6901820415       14.8863846741
 Si         0.0473770916       19.3660588611       20.0522546112
 Si         1.0827749445       14.5376531421       17.1219238305
 Si         1.7362232980        6.6846220019       19.4996963157
 Si         7.5559513216        6.4566018974       18.3255718411
 Si         4.3907345851        0.8491404056        8.3786894939
 Si        16.2726787300        5.0599435223        1.6556508803
 Si        12.5284638232        3.1352652912        4.6288560203
 Si         2.7659443738       15.9344063056        3.7254049729
 Si         0.5663883727        3.2161369038       14.6231131770
 Si         4.8087984802        7.4583900375       18.7679639931
 Si        17.3370635019       17.2686096736       12.0467278362
 Si         5.3862268984       18.1040582940       15.0879317897
 Si         1.6433343965       11.1127840048        6.9885163746
 Si        14.8423786081       16.2695815515        3.4209979943
 Si         7.4763199583       19.8963090108       13.7448077358
 Si         2.0631006296        3.9076216678        0.9905461202
 Si         1.3999836999       17.2647228948       15.9818120933
 Si        16.4617788527        8.0079749643        1.1913714282
 Se         4.6473542818        8.6235762226       13.7778194466
 Se         6.6063706605        5.7371354922        7.1212005328
 Se         5.6771637049        5.5221036645       10.6883581036
 Se         8.1835414119        5.5090630382       13.1445851351
 Se         8.5279714874        3.1088103124        9.6727129849
 Se        11.5493113920        1.1574564297       12.2495391386
 Se         3.2187519110       12.4574477408       12.1797385672
 Se         6.2561990726       12.6028923860        5.2372898338
 Se         6.9136433113        9.7760963060        8.7208619078
 Se         7.5136124450       10.7868800912       12.3388365090
 Se         9.8272692664        6.9447894677        4.4768602390
 Se        10.2273257589        7.5763545229        8.8014059375
 Se        11.0220305429        8.7540956014       13.6022962772
 Se         8.3505951672       10.8431503302       17.5481747165
 Se        12.3828283358        5.0473774326       11.1919227343
 Se        15.9052880933        7.6676817588       13.3352714310
 Se         6.8431684075       16.5743834591        6.0164857114
 Se         3.8522736203       14.8591711682        8.4275704107
 Se         7.0209675484       14.5165833721       10.8102280675
 Se         9.9619942998       13.3177795521        3.1869819496
 Se         9.3319605027       13.3546719238        8.0287780657
 Se        11.1385945579       12.3625972362       11.5168409202
 Se         8.8650884435       14.5142582119       14.8600203191
 Se        16.1417544994        8.9184087279        6.2101883268
 Se        12.7505101200       11.6360053201        5.7582230951
 Se        15.2774077709       12.0643854719       12.7359961440
 Se        12.2603085861       11.8497467433       15.7920510690
 Se        13.2926598863        9.6853683813        9.6411802746
 Se         8.5554398578       17.7270823913        9.8125205622
 Se        11.9688103024       16.3599315095       12.7393328800
 Se        11.1420445936       17.8173261484        6.7200114782
 Se        13.1056686086       15.2866331515        9.0489171586
 Se        15.9768219144       12.9033734402        8.1315533097
 Cd         5.3143694031        7.3186584432        8.7796260068
 Cd         8.6578800274        5.4451453176        8.7131584187
 Cd         3.4204793199        6.6210195482       11.6224028309
 Cd         3.6017720882        7.2412882843       15.6764188641
 Cd        11.0197852495        2.5754816827       10.0718095884
 Cd         8.2070341813        0.6215058372        8.5332829115
 Cd         4.0626731779       13.3188270358        6.3365603068
 Cd         6.9415398022       10.3308897988        6.1343565243
 Cd         5.2434347003       11.2366883415       13.4974396357
 Cd         7.1924242608       12.4991526321       16.0225837991
 Cd         7.1129360265        6.9347534433        4.9678884091
 Cd         9.5387976335        8.7320389546        6.5666534565
 Cd        10.5343392836        6.3373234211       12.3746955090
 Cd         9.4749331494        5.4850019577       15.4301677226
 Cd        12.8232892850        7.0359382208        9.5494379214
 Cd        13.1427444841        7.4548348309       13.9999980659
 Cd         7.8343798021       14.5495299732        4.3979413009
 Cd         4.4454776560       14.3601291839       10.9077461415
 Cd         8.8777613067       13.2596224956       12.5888236380
 Cd         6.7451965196       21.4450023606        5.9526117394
 Cd        10.1059523448       12.2625027949        5.7956374592
 Cd         8.0005583399       11.9857465343        9.7309111906
 Cd        11.4202342097       15.1555520568       15.0125558547
 Cd        14.2935196662        9.7962073109        0.9982062876
 Cd        14.6895921335       10.7035209325        7.2637359947
 Cd        12.4604724251       11.1258855418       13.1340983078
 Cd        13.0683219901        9.7076300557       17.1255776379
 Cd        15.3529487759        9.6990136657       11.4140273824
 Cd         8.7620073686       18.2414683161        5.8187782899
 Cd        10.0331309281       18.4469043559       11.9730693908
 Cd        13.9093588022       17.6110880760       11.3171034465
 Cd        10.4891056004       15.9739375902        8.4892337469
 Cd        17.0480374552       11.9781161151       10.3851398405
