438
 i =     5200, time =    10400.000, E =    -10932.3916447570
  O         4.0764367594       16.6275380563        3.0788768545
  O         3.5097565242        8.7509918233       10.0877100198
  O        14.2637487594        1.2418252758        1.5362476881
  O        12.2842590516       15.7748352782       16.6895676980
  O         1.6716503759        7.3232716814        1.5346492914
  O        15.9784743042       16.4374839741       11.6272632277
  O         4.0713061976       11.5433171216       18.6300207912
  O        17.6276701630       15.4882284112       19.6250238382
  O        15.6695088609       13.9863772157       20.5648196638
  O         1.5572698232       15.8557161913        2.4981818763
  O        11.4190575944        7.4967676196        0.2620115098
  O        18.1531532295       13.7080478795        1.9580891774
  O        10.8277172863        6.5538323753       16.4923844253
  O         1.1300620672       14.8754615983       18.5082264738
  O        17.9595233831        3.2234838307       18.1708709408
  O        12.2437211493        2.0259594312        8.5936778185
  O        13.2705171072        1.1558702007       18.2796489780
  O        17.2252321962        6.4279641158        1.3106516038
  O        10.6147575028        0.8039955412       15.9255967299
  O        15.5334853491       19.4539601340        5.9949016761
  O         4.7334295323        8.2197172254       20.0708174377
  O         3.2699440361       19.0286644454       12.4267379737
  O         1.1319123904        7.8929747690        8.9394026052
  O        16.1525880211       16.5309095279        7.0009427868
  O        16.9297695771        3.7123851689        1.2230223003
  O         7.5882248316        6.1244262333       16.6764260694
  O        15.7016716740        1.9961194756       18.7360273084
  O        -0.3787510441       18.6028264959        1.8771779200
  O        -0.0079099610        4.3881136785       13.5569707409
  O         2.3430528588       17.7911154224       16.9210763084
  O        11.7717718066        3.8926193435        3.0171638460
  O         0.5526537842        2.3827132389        7.2422678297
  O         4.7377649591        2.9989674688       14.3380320438
  O        16.8444507393        4.4763245441       10.4969932184
  O         5.5358279586        5.2778485831        3.8196524641
  O        11.7757799960        4.1932783499        5.6640854893
  O         4.3412947764       18.9179394988        9.0687622069
  O        14.8100231225       15.7231506156       15.6066985563
  O        17.3333975770       11.3413021864       18.9043405880
  O        14.7026871946        5.2768710125       20.2395032155
  O        18.7884336464        3.4528688602        4.9556244373
  O         3.3584262141        8.1656065972        7.4842304215
  O         4.3341209720       17.5170405034       18.6744941189
  O        13.4281811659        7.7340916392       16.3262107129
  O         2.1965832442        3.2970913512       15.0169028021
  O        16.1597284333        5.2137870078        3.1964193743
  O        14.7414118974       11.6821692425        1.6625120529
  O         9.7494372160       18.9040925570       20.2088841691
  O         5.9379365861       19.8254703403        2.2895471448
  O        17.1353396651       18.7159006535       12.6448188404
  O         5.1774782106       12.6928099855       15.2145615676
  O         0.5272627645       16.1405200826       16.0581744890
  O        11.3797716675       17.9567990433        2.7189318487
  O        17.9254303974       11.1327572216        2.1907626204
  O         9.8653794968       16.3751750139        1.2760937310
  O         0.8489193013        1.8401933431       13.2658795646
  O         7.4023149375        3.3731985708        3.9123332016
  O         0.8831827792       18.6600128689        9.5012196437
  O        17.9292673269       20.6722155443        0.7515467424
  O         3.0878900474        4.5479078777        1.4126985848
  O        17.6495935303       13.7200990822       14.3802583792
  O         0.1953650348       13.5480227276       16.4125455355
  O        14.9246903436       12.4548756456       18.4246386736
  O         0.9961911844        7.5546284514       11.6875047059
  O         8.3047164293        2.7018379141       19.6918199374
  O         0.3581777415       11.1194654260       19.5777326187
  O         3.8523357585        2.1630889214        9.1419732464
  O        10.1722491546        3.3294388803       15.1381424206
  O         0.8436098222        7.5485970052       18.3969232980
  O        13.0716605599       13.6483580287       19.9318031432
  O         6.1554586444       19.2296329500       14.3422082593
  O         3.4727347015       11.5580216137        1.8339314402
  O        14.4918670406       16.3387909228       18.1221163651
  O         2.1409914431        2.7738813448       19.0808366395
  O        19.7117788755        9.9134061007       13.7104640112
  O         7.4058777264       15.3705776331        2.1035366449
  O         0.3327082479        7.3481795229        3.9118245311
  O        17.7709631474       17.7077946869       10.1559313958
  O         8.8796360341        2.4521227217       17.1832170765
  O        14.0075738409        6.1755269377        7.6386018876
  O         2.0551999936       10.3458778632        8.5894892497
  O         2.4335650043        9.0491912160        3.5459435106
  O         8.4456569266       18.4973568148       13.4798256843
  O         3.4864045685        0.6873114469        6.7589912205
  O        12.5266404554        5.9879138281       14.3466744743
  O        12.6466154522        9.8184482353       19.0091091903
  O        15.7687573498        8.1172458880       19.0642279270
  O        10.4017935955        9.7980796526        1.0873294292
  O         7.1283237076        1.3559209008       12.4335915535
  O         8.8855350479       20.5201117841        6.1010667160
  O         3.1960427104       11.4966093619        6.3681298661
  O         3.2213744224        4.6335780693       12.7405259182
  O         5.8138907076        6.1280868234       18.7297097834
  O         2.1749265467       17.1944012962        4.9326079444
  O        17.5175196921       20.3280434979       16.8760047932
  O         2.6728841096       14.6050754112       16.2673536084
  O        -0.5227886819       18.7870738525       18.4264081610
  O         1.4943743336        4.7024282221        6.2798113011
  O         3.9130547384       20.2199369756        4.1052418804
  O        15.2946821152       17.8537097944        3.7933715003
  O         9.5049995512        4.4121075026        1.9733394567
  O        12.4802487503       17.6603772759       19.3648573586
  O        14.6264250045       16.8349632955        1.4581420181
  O        16.9700853621       12.9985239404       16.8651594764
  O        13.9231733078        6.3761648614        4.1824254706
  O        17.4198691641        9.7508078862       10.1779215810
  O         4.8527969291        8.1065566994       17.2323766785
  O         1.0120193550        5.1655659632       19.2542315336
  O         0.4546445691       12.3834770430        3.6757397882
  O        18.5956772726        6.4946959647        9.9621329665
  O        15.0122330145       18.8257938906       19.0981877650
  O         1.9145386697       10.7940172059       15.7074001101
  O        -0.1716024974        2.6424791468       15.7442522025
  O        14.3221573990       19.1832990541        9.2200835390
  O         6.0830338224       11.5626748352        1.2634750053
  O         8.7442350186       18.0820352948        3.1994951586
  O        15.2078688009        3.7201922333        7.6907059993
  O         3.2058044778        6.5339995019       18.6298622519
  O         0.8563875615       10.0734043207        6.2369769102
  O        12.5333341617        1.7317367428        4.8387183486
  O        18.4640747423       17.6911249993        7.6624366434
  O         9.5971062289       17.7574985570       17.7131029226
  O        16.8241154081       20.1485286926        3.7766852084
  O        18.5000454393        4.3920767310        8.3245041143
  O        18.7443667188       13.1371790900       10.7502438884
  O         3.9456212303        5.3122686930       15.4192432972
  O         4.4591516195       17.2100272008       14.0731174263
  O        15.8233624887       10.5089981202       16.7446056805
  O        16.6140678976       15.7275734976        2.8289767488
  O        16.4421440934        1.5837278093       14.0276541587
  O        15.8814133235        4.2632962745       13.8690662784
  O         5.9701576044        1.1240170164        7.6326507264
  O         1.8273230300       17.5819465621       14.1258225391
  O         7.7918465294       17.3713862067       19.6632259531
  O         7.7708236379        7.9581952707       18.7074632351
  O        13.6409987493       18.0506583405       16.1772184620
  O         1.9341069133        2.2284282279        5.1023237683
  O        16.4964227341        3.2587760853       16.1081273537
  O        14.2729805930        3.7274334703        4.2969386313
  O        -0.9138679104       16.4315606364       12.4463543866
  O        18.1168838497        9.0255756227       20.2367336828
  O         0.3819295260       16.0149319107        9.2666567631
  O         6.2252577286        2.4040784495       17.9076046095
  O         6.3166953872       16.8415984159       15.6816679349
  O        17.2123634930       17.6886743168       16.5355392005
  O         4.4160509232        3.0892031544        5.8160055522
  O        16.3367411443        1.5419377293       11.4022549100
  O         2.7412958229        6.4526547462        3.9707728619
  O        17.8185545576       21.0899377384        8.3622471469
  O         0.1980188613       18.7609418037       15.8229495187
  O        16.0304275579        8.5401086023        2.3527719122
  O         1.8153651720        5.6218792021       10.0125705674
  O         1.3052955436       19.8954645795       19.9091923537
  O         0.7802053812       12.4317829050        7.4848936586
  O         6.7500971963        4.4302512940        1.5594831269
  O         2.9136176209       16.2705790637       12.0627332096
  O         3.5633966730       20.6106537698        1.4255916338
  O        11.4930706877        3.4529595196        0.3949353059
  O         3.5183531246       19.9351787556       18.2500858539
  O        16.5310027812        6.0230874804        8.3317500980
  O         2.7255942069       14.6100990989        4.5590398517
  O        12.8565932006        8.8900329982        2.0759464672
  O        13.0837578340        5.1818282995       16.8351345237
  O         8.4125432620       14.9027770828       18.9249069105
  O         6.1041914348        9.2954163022        4.4786324847
  O         7.8977997785       19.6833333954       18.4202239153
  O         8.4159412533        5.4675484714       -0.1175078089
  O        14.5718181607       19.3629889294       12.8094094012
  O         0.7337384334        3.5013700274        1.9832372712
  O        18.4096739164       15.5474726899        5.9693123757
  O         8.1049992396        1.4958932621       14.8814896413
  O         9.0937544675       10.6681831458        5.1645557924
  O        17.1926341512       12.7439367109        4.2050649403
  O        18.2705812819        6.6605509229       16.7352609255
  O        19.3052767503        9.0909234300       16.4223951952
  O        14.1314247980        2.5148723719       15.3047946413
  O         4.7200052504       18.8536172870       16.3208085771
  O         0.4228524009        2.6229913813        9.9235042169
  O        14.0327409634       15.4717858299        3.6950908760
  O        17.5751303498       17.8792090357        5.1446331171
  O        15.8578283844        5.5026197455        5.6995794639
  O        10.2408973602        1.7862244420       21.6776338015
  O         4.9778154855        2.9331634939        2.9318468942
  O         1.4236500199        6.9526983023       15.8300799574
  O        18.6537833556       11.4046660143       15.4811082863
  O         4.5780804670       13.6766648615        0.6170198001
 Na        13.5196391737       14.4252146726        6.6716148746
 Na        -0.0587671704       18.9701663347       13.4365756888
 Na        14.3653914397        3.4949925954       17.3461533885
 Na        14.1984759427       17.7496072406        6.8638323948
 Na         3.8284628420       13.7344159297       17.9452148143
 Na        13.6451735829       19.3245345858        3.4130540248
 Na         5.0311819454        4.1858665752       19.5490859999
 Na         2.1420856423       18.6705022735        2.9853815310
 Na         7.2814632919       16.1886319526       17.4710915984
 Na        18.9389211314       21.4326266163        3.1015501608
 Na        18.9961105176       16.8848077725        3.5119337459
 Na         3.5579724208       16.0431257836       20.0414128212
 Na        14.8004907773        6.0176876134       15.1499137953
 Na         2.2625072896       20.3200917245       10.2355927580
 Na        11.6991093057       18.3898034363       17.3730785811
 Na         7.7952276126       16.3888821458       13.5371067375
 Na        13.5244588058        3.4274198144       20.7434301548
 Na         5.3787527834        0.2754475333       11.2695834229
 Na        19.8503341809       14.0703126606        5.0673780937
 Na        11.8064752584       19.6252105646        0.9936139270
 Na        17.2615061255       14.3096199079       12.3551037691
 Na         2.2613211406        9.6994279936        0.8172444632
 Na         4.2198114942       11.0294918408        9.3950053889
 Na        12.3734282570        3.5065234269       14.2232628087
 Na        12.8458804916        4.0915400923        7.7192119492
 Na        14.2090531050        8.5693406722        3.7972540718
 Na         1.2700899699        6.3351301977       13.5410533708
 Na         2.7334951442       12.8574508459       14.9546925533
 Na         4.1193374802       18.0439774869        5.5908629620
 Na        18.4116677875        5.4372358158       18.7164258667
 Na        12.2688813666       15.6203392956        1.3947344899
 Na         1.5050360945       16.2495222523        6.9394473342
 Na         8.1349119639       20.4526025446        2.2774715124
 Na        15.7622763837        2.4735650362        3.0653630858
 Na        19.2802884387       12.2460966980       12.9340926709
 Na        10.5105844762       15.8216901407       18.3885295816
 Na        16.5085488719       18.7040781525       21.2127133644
 Na        12.8178971508       19.6452363383       14.4842089879
 Na         2.8396776072       17.4390524748       10.1228238997
 Na        14.7604433455       17.3392600928       14.0304456718
 Na        13.3366787228       14.5411444289       11.9259596679
 Na        18.4970430447        8.8112645467       11.9627654024
 Na         4.7677081845        9.6703246458        2.4171591523
 Na        15.3798717342        5.5175206223       11.9406963269
 Na        10.8923473205       10.3262140494        3.2134394550
 Na         7.0072142261        8.3421083217       16.0832375077
 Na         5.8611373628       18.9014650380        0.1942312781
 Na         7.5471656573       13.0799573726        0.3922974069
 Na        15.7323671824        8.0064290325        8.5428584702
 Na        11.2732453978       16.1224638274        4.3386606764
 Na        16.5150601370       19.1355038950        8.3384536641
 Na         5.2165565031       14.4585821670        2.6737930227
 Na        16.9502395362        2.5986376766        6.1200552591
 Na         9.0989624571       18.5661063690       15.7309497542
 Na         6.4436944283       17.4793406295        3.0732100331
 Na         4.1912955236        6.5004478974        2.2841053387
 Na        18.2021634548        5.5022364852        6.3717420144
 Na        18.0991427393       11.7214691826        6.2189448820
 Na        17.5401613933        7.7564504955        3.8004240762
 Na         2.1660795085        3.8380014091        8.7350061352
 Na        13.0680351773       13.9742072294       17.6307894176
 Na        10.1702045840        8.4935597149       17.7522232796
 Na         2.7787844511        3.9237327340        3.3603683856
 Na         1.7574761459        7.1391402037        6.0837951663
 Na        18.8026687821       14.1461744183        8.4768311380
 Na         2.0003258142       13.5016787606        2.1068403197
 Na         7.4151699744       10.5957979999        2.9075853395
 Na        19.5051021633        9.8270909556        4.1662642117
 Na         0.7374358355       15.1359765517       11.3945123705
 Na        11.9263145829       19.0911377387        9.0193875654
 Na        17.0548392467        8.5496743123       17.1636238537
 Na         1.1572301481        3.9885100592       11.6056482762
 Na        16.4139741386       14.5362143129        5.2044381568
 Na         9.2917152414        4.4987349065        4.5969860057
 Na        -0.6280820582       13.2785634634       19.0769178680
 Na         5.6292372092        3.6516960132       12.3238201100
 Na        10.4560987861       10.1313710086       10.2492305929
 Na        10.7616321533       19.8535206188        4.0971302149
 Na        20.1251069943       19.5937262332        7.1633543331
 Na        16.2350122012       15.8838108802        9.2949144731
 Na        15.8266248973        2.5651192512        9.4412627501
 Na         3.9592069688        5.3624660160        5.3850159537
 Na        16.6587276004       15.7008640869       17.5963107722
 Na        11.1920672618       11.8319954457       19.4833150381
 Na         5.6531552148        1.6519172606       15.8715435606
 Na        12.2570187846        6.5871989265        5.9427870864
 Na         8.9126795423        2.7491969542       12.4718137705
 Na        11.2610359266       21.7635167931       17.6697463534
 Na         6.9613682264       14.5041415719        7.5182521259
 Na        10.9772876162        5.4489114556       18.4997901536
 Na        12.2620673406        6.3423032673        2.4937684598
 Na         5.8734747818       17.3856777196        8.7404419241
 Na         4.7598382015       14.9867221791       15.2495766783
 Na         1.8240672920       11.3305081711       17.9469406442
 Na        13.3365635902       13.3507184788        3.2342344156
 Na        13.7376342168        1.3230116899        6.9159474353
 Na        10.8034337480        2.3436950949        6.8115883187
 Na        -1.1107929525       20.1656968254       10.7147426595
 Na        17.5445086312        3.3985705629       12.3993059284
 Na        17.9675685128        5.2709425023       14.9557610980
 Na        10.0513436537       11.2477603959       14.8754815365
 Na        -1.4618502252       16.0069684143       14.8194544587
 Na         2.9530787346        1.1521843477       14.0848531806
 Na        12.6896649513       12.6390099886        9.1862401977
 Na        19.3355524951        5.0714326385        3.2643012712
 Na        15.1921400522       13.4391310548       14.9301284914
 Na         0.1773982872       16.4770468540       19.6799497121
 Na        15.8172426556       11.0460918558        3.6204423584
 Na         4.0346994134        9.4038574822        5.5878528381
 Na         2.4826223544       11.2964121529        3.8664565409
 Na         2.0684580434        4.6362976662       17.0429659826
 Na        18.6058395747        9.3471103940        8.1248219934
 Na        16.5861767805       10.3111582954       14.5492142146
 Na         5.7886415407        4.6074760562       16.3111433475
 Na        13.8330031212        6.7345179225       18.7486539058
 Na         6.4710715897        9.9470732665       -0.3058187578
 Na         1.2545440394       12.4920997883        9.7158148917
 Na         9.1625083223        7.5850808997        1.2847023708
 Na         2.1610846856        9.4623894339       12.2654209925
 Na         5.6369726232        3.5628921941        8.4818716082
 Na        15.2096117715       19.5249654801       16.5334434226
 Na        13.5193568305       20.5482627091       10.7009527426
 Na         7.1368718395        8.0962391214       11.8178832229
 Na         4.2487521943       10.4350614344       16.5637155592
 Si         0.8460557286        3.2733038787        5.8061384502
 Si         8.2374710091        4.2574768463        0.9463348584
 Si         4.5878216771       12.0902459289        0.7767536511
 Si        17.6678578413       16.8069242889        6.5122293113
 Si        17.1206120599        2.5508476271       19.4321084971
 Si         1.8019211714        7.5736701342        3.3074208639
 Si        18.3421675393       12.4937711538        3.1138124560
 Si         3.5054403953        1.8102504536        5.4762694368
 Si         6.2056642236        4.0216749686        3.1388547732
 Si         9.5121191020        1.9920944309       15.6792829134
 Si        17.8589913155        2.5087581606       16.6212215435
 Si         9.8888970612       17.7647285202        2.1162626597
 Si        16.3883810935       18.9458739380        4.7244598549
 Si        14.5191766326       12.9281349611       20.0232100730
 Si        19.1699964444       17.4783386893        9.1994792003
 Si        10.7942030755        3.2092215590        1.8650294724
 Si         8.8211712164       18.4482551394       18.8880512305
 Si        12.3526730920        6.3886991607       16.0009357946
 Si        17.6164420737        5.2699711535        9.3899910908
 Si        11.7917980223        8.9431544288        0.8208633295
 Si        15.0042417768        5.2361528777        4.3681059467
 Si         3.1355527277       17.5449723880       12.9988729306
 Si        18.1817266636       12.9487297169       15.7060780183
 Si         2.6490512278       20.6808748632       19.4648532129
 Si        14.0606094721       17.4033965245       19.3597734352
 Si        14.4858637460       20.3884237289       19.3463577958
 Si        13.7787199259       16.5261543665       16.5807990872
 Si        18.2742067928       18.8084615383       16.8783751266
 Si         4.7101980282       20.6941923934        2.7108594277
 Si         0.8326185533        6.8626192767       10.2324324538
 Si         8.3141406078       15.8191263442        0.8538893505
 Si         3.6751214507       18.4253908850       17.5572135062
 Si        18.3320884789       10.6635921541       20.0555012631
 Si         7.7255738654        1.9831395969       18.2823506816
 Si        19.6463942204        7.5362628969       16.8249564527
 Si        17.0678640374       14.8345485562        1.5218417979
 Si         2.5976139973        8.7435699476        8.7542147275
 Si        16.2368627981       11.7218844946       17.7247340874
 Si        18.9589018198        2.7519727290        8.5921685924
 Si         0.5126578092       10.2266349369       15.2481263628
 Si        16.0490217197       20.0095201936       12.6959598574
 Si        15.3255091595        5.2911057939        7.3888733452
 Si         3.5638545906        4.1240279003       14.3315881683
 Si        15.6016561598        2.9359734319       14.7009911531
 Si        -0.2800476913       19.5156611289       19.9510790503
 Si         1.1910725270       14.8491562036       16.8972055109
 Si         1.7652147981        6.6609002238       19.4252213350
 Si         7.3684081183        6.4477088816       18.2477131401
 Si         4.4566777826        0.8950783945        8.2535518072
 Si        16.1129704280        5.2118246290        1.5372712238
 Si        12.5218236615        3.3184933226        4.4928185090
 Si         2.6691962478       16.1202131647        3.7285265009
 Si         0.6705863399        3.0732736467       14.2482914324
 Si         4.6502301644        7.4410497888       18.6840481407
 Si        17.3677676842       17.3011742571       11.7434532510
 Si         5.4328521941       18.0092526086       15.1300346778
 Si         1.6786623739       11.1480701609        7.0331410509
 Si        15.0305189343       16.4450259289        2.9910889342
 Si         7.5178519913       19.8473734528       13.6679840334
 Si         1.7219811784        3.9508605266        0.8663260595
 Si         1.3241416839       17.5383488111       15.6877328459
 Si        16.7567458698        8.0688480496        1.0103807012
 Se         4.6918077508        8.7248235959       13.3938551375
 Se         6.5714622305        6.0189870413        6.7320835756
 Se         5.8488586544        5.8860161317       10.4077618396
 Se         8.3842388650        5.8261150397       13.0213900230
 Se         8.5592705468        3.3453235410        9.5047392256
 Se        11.3084585069        1.4973262819       12.2569903073
 Se         2.9821255038       12.6110762094       11.9826458336
 Se         6.2503610283       12.8014070077        5.0021564849
 Se         6.7789513097       10.0738820873        8.5518845896
 Se         7.6508061047       10.9943763600       12.3348830242
 Se         9.7622481301        7.3542336779        4.0337631136
 Se        10.1931585461        7.6820618499        8.5808812139
 Se        10.9757063333        9.1352426290       13.0386364394
 Se         8.6300925421       11.2350671111       17.4627890480
 Se        12.6300478131        5.1765434922       10.9821075325
 Se        15.7723062956        7.8679339077       13.2123080786
 Se         6.7689155481       16.7742678094        5.8263359255
 Se         3.8603866617       14.9065314850        8.3293494856
 Se         7.0299423719       14.7186532549       10.6940909303
 Se        10.1323886383       13.6548528360        3.2188072701
 Se         9.8437866686       13.3931830213        8.1759674079
 Se        11.0716027441       12.8655127918       11.5689896927
 Se         8.9161327735       14.2388532109       14.9578239495
 Se        16.6729713969        9.0201243003        6.1247687968
 Se        12.7276752816       11.3475434730        5.3540562524
 Se        14.9862628764       12.1801519775       12.2676397126
 Se        12.6982142057       11.9698534398       15.5570927233
 Se        13.5037473059        9.6111453977        9.2511114656
 Se         8.5005045457       17.9911606442        9.6982440799
 Se        11.7926060264       17.2110961415       13.0127934318
 Se        11.3234547981       17.7819493379        6.5627654031
 Se        13.0538541711       15.6412851309        9.2236048361
 Se        15.8696805622       12.8355873564        7.8001320535
 Cd         5.3421947427        7.6388407699        8.5164532478
 Cd         8.4938769767        5.6550081105        8.3364191069
 Cd         3.6331581536        6.4500283482       11.2776139125
 Cd         3.5431313789        7.4669704901       15.4101533203
 Cd        11.1406158564        3.1025800619       10.0724100991
 Cd         8.4051696079        0.8598097781        8.2840327126
 Cd         3.9820382844       13.5466995098        6.1002595803
 Cd         6.9706888164       10.3920953537        6.0002161113
 Cd         5.2008092905       11.4500440473       13.3212123057
 Cd         7.0240078186       12.5079899888       16.1606425457
 Cd         7.0817766146        7.3304724828        4.4873685557
 Cd         9.8209505155        8.9915749527        6.3544903010
 Cd        10.8743342816        6.2707464530       12.6621259630
 Cd         9.2428454046        5.3928900645       15.5070326297
 Cd        12.6768842342        7.1335647919        9.3003237231
 Cd        13.1773022343        8.2202346724       13.9469485577
 Cd         7.9358667195       14.8033245203        4.3465186283
 Cd         4.3749574962       14.5789284291       11.0698745981
 Cd         8.7462294923       13.6136980217       12.3587285284
 Cd         6.8777649353       21.5311222036        5.7558386920
 Cd        10.0957790359       12.5454968899        5.6846228675
 Cd         7.5582360181       12.2355447282        9.8017473116
 Cd        11.1063092759       15.6044426059       14.8412844481
 Cd        14.6129104882        9.7816522460        0.7558666129
 Cd        14.6797831268       10.5733761643        6.9274995544
 Cd        12.6458012935       11.1482227036       12.9265701993
 Cd        13.3509162276        9.8839679604       16.8466090616
 Cd        15.4658376617        9.6267667325       11.1383819985
 Cd         8.7094940702       18.3204662502        5.6240643054
 Cd         9.9186665378       18.7330116176       11.8468318935
 Cd        13.9884489981       17.7325261576       10.7460614420
 Cd        10.5844389485       16.0074360357        8.4107778121
 Cd        17.1047645870       11.9141742658       10.0425012236
