438
 i =     9300, time =    18600.000, E =    -10932.3892237796
  O         4.1261693528       16.2331384954        3.2914515028
  O         3.3093812967        8.4800599826       10.2433794319
  O        13.8550228042        1.3292149636        1.9318771257
  O        11.9165556747       15.8037952849       16.7383220590
  O         1.5358748234        7.3231934978        1.5199775614
  O        15.9294736092       16.3215465979       11.9777849739
  O         4.0567558479       11.1518236447       18.7636470276
  O        17.4748948765       15.5266855407       19.9573557059
  O        15.3137546752       14.1524328869       20.5740978432
  O         1.5516032996       15.3790217820        2.6192704096
  O        11.3136024301        7.2170034047        0.6312817730
  O        17.7475931449       13.5556265446        2.2425116474
  O        10.5916509265        6.1951616788       16.9145605491
  O         1.1896192417       14.5418887636       18.7855066261
  O        17.8946301450        2.9821556786       18.4390295142
  O        11.7221007489        1.9104496365        8.5788912684
  O        13.6928406575        1.4247855410       18.5647377898
  O        17.0828232083        6.3521425683        1.2882507801
  O        10.7668382211        0.6889695228       15.9972238147
  O        15.2382916648       19.3331462249        6.2431215942
  O         4.6744621950        8.2119369474       20.0208577731
  O         3.0869146896       18.4580462789       12.5188106646
  O         1.0951183756        7.7691714112        8.8822538480
  O        16.1640641683       16.3962170109        7.4219190210
  O        17.3559275181        3.7685903605        1.5386983174
  O         7.3837934069        5.8573461635       16.7586172304
  O        15.9488458664        1.7572259299       19.7230338062
  O        -0.2823145634       18.3645647395        2.0575437992
  O        -0.3237068110        3.9901305087       13.7452174441
  O         2.2775234660       17.5744210449       17.6294515958
  O        11.6523114794        4.0394506862        3.1392194477
  O         0.7663141660        2.5566982331        7.7697829971
  O         4.5258031438        2.9856124868       14.0279442304
  O        16.8451895779        4.7070498462       11.0034397167
  O         5.6027616525        5.1996717127        3.8525413032
  O        11.2420734686        3.9472262504        5.8186561154
  O         4.4717689592       18.5337149890        9.3108729616
  O        14.5309268262       15.5684999732       15.9646665375
  O        16.8805772199       11.2653099165       19.5652625660
  O        14.9337503752        4.6694990324       20.1628730604
  O        18.8682166331        3.1733629747        5.4476168234
  O         3.4025903314        7.9360810079        7.4939239694
  O         4.4655171305       17.3816793516       19.0591266204
  O        12.9029594819        7.6927709890       16.5741058617
  O         1.9864382304        3.0086072405       14.8471495044
  O        15.8837842148        4.8329321295        3.3875377766
  O        14.3460208478       11.7256941039        1.8853092105
  O         9.3973134117       18.7730411209       20.2805853344
  O         5.9832390408       19.6919348299        2.5971814274
  O        17.0969817210       18.7528543538       12.5378625973
  O         5.0750021187       12.3851944389       15.3105073032
  O         0.5799180273       15.9738240997       16.4849215108
  O        11.1060986333       18.2748473461        3.0039416130
  O        17.7252178143       10.8049509495        2.6869285481
  O         9.5149576537       16.3923120328        1.9170998779
  O         0.2757332267        1.4198784745       13.6049466104
  O         7.3403205596        3.1386832513        4.2131722849
  O         0.6511206169       18.5887180409        9.8634395355
  O        18.5316164719       20.7277941992        1.1870496295
  O         3.3850411662        4.4988249976        1.4741196600
  O        17.4643160784       13.7160645678       14.9279199074
  O         0.0840519269       13.4318670546       16.9222779050
  O        14.7474202923       12.5748356628       18.7257053054
  O         0.9677343181        7.3487271005       11.6626798932
  O         7.9300841114        2.4349446586       19.7242590686
  O         0.1373739126       11.0510842029       19.9997259647
  O         3.5933104140        1.6549965428        9.1163282571
  O        10.1449112217        3.2123972340       15.2387027542
  O         0.5009452091        7.4050976902       18.3771462041
  O        12.6637913018       13.5508958565       20.0772787439
  O         6.5928804633       18.8956962686       15.0999587648
  O         3.3496375061       12.0567271704        1.8262858125
  O        14.0021081702       16.3855023596       18.4360732885
  O         2.1423636096        2.6074467753       19.2112060065
  O        19.5023924146        9.7138010384       13.8113566719
  O         6.9748897627       15.3362109667        2.1364582436
  O         0.2735759354        7.2636062978        3.8817266341
  O        17.5932679315       17.4279969161       10.3074154980
  O         8.7851657618        2.0043210888       17.2167538755
  O        13.7094346856        6.0192196624        7.5496649971
  O         2.2572849765       10.1318186485        8.4927603835
  O         2.3672841859        9.0062488043        3.3396354255
  O         8.5789161932       18.3071723355       13.3833078202
  O         3.6614720269        0.0024284797        6.7856419443
  O        12.2563268222        5.8363689235       14.7097381668
  O        12.2791267592        9.6867577493       19.2754258257
  O        15.4194749665        8.0749142081       19.3825871413
  O        10.0099148972        9.5191041005        1.3538417039
  O         6.7735465281        0.7531286547       12.7311802510
  O         8.5809890840       20.4246732379        6.3310524203
  O         2.6520073791       11.2722564216        6.0761353343
  O         2.7724901869        4.8253730583       13.1859356124
  O         5.5988470508        6.0628427020       18.7359506698
  O         2.1114390145       17.0289390986        4.7907733861
  O        17.4927408530       20.0861119968       16.9272313772
  O         2.6913817849       14.3507928575       16.4515011587
  O        -0.7491765598       18.6510684377       18.7950767821
  O         1.6490219816        4.5578264524        6.2567699101
  O         3.8425324147       19.9930627628        4.2445577743
  O        14.9708781584       17.7227643785        4.0562508061
  O         9.2708588462        4.3322382511        1.8049829231
  O        12.1427718484       17.8147871005       19.7900954105
  O        14.2281425436       16.5888717140        1.7241299385
  O        17.0800544120       12.6671299146       17.3662179458
  O        13.7644279363        6.3852756897        4.3856810262
  O        17.2011974337        9.7951608767       10.5420268139
  O         4.7242907524        8.0912797927       17.2643567796
  O         1.1229623031        5.0726493716       19.5221920875
  O         0.2464693119       12.3466653489        3.6409402013
  O        18.4402088529        6.6330899893        9.8821760638
  O        14.8031791486       18.6593470985       19.6830391050
  O         1.6485634949       10.7004876351       15.9980128132
  O        -0.2453329589        2.6360624944       16.1011902710
  O        14.2312683937       19.0384894685        9.4585596100
  O         5.9523143404       11.3814945272        1.3666228107
  O         8.4793833793       18.3914887772        3.4248031561
  O        14.8681099250        3.5068922473        7.8649134189
  O         2.9677110515        6.6044172342       18.5828905262
  O         0.4587467024        9.7353106584        6.5023799052
  O        12.1041131040        1.6705530739        4.8903213625
  O        18.4892351641       17.8436968984        7.8452701717
  O         9.3791055406       17.6830777793       17.6645607750
  O        16.6686624052       19.7919679778        4.0484877159
  O        18.3343014070        4.2051896249        8.6801896813
  O        18.7566511825       13.0994225816       11.1506586705
  O         3.6368475556        4.8246574419       15.7614465176
  O         4.7088343225       17.1436781523       14.0895477187
  O        15.3726263225       10.5131350843       17.3221450714
  O        16.4620956105       15.8668170727        2.8866873855
  O        16.3152549866        1.1898933252       14.2238400384
  O        15.7978477950        3.9218749158       14.0154818851
  O         5.9121130586        0.9977916671        7.9429853515
  O         2.2297338006       17.3780453602       14.8624263743
  O         7.6635855095       17.0644652382       19.6107935161
  O         7.8417906801        7.6194361901       18.7135754809
  O        13.3578911022       18.1067303779       16.3562886454
  O         1.8663692153        1.8141900258        5.6352630730
  O        16.3709518850        2.8662732272       16.2553163904
  O        13.7591625527        3.7557453459        4.6253825328
  O        -0.9264161267       16.5491976424       12.8564261049
  O        17.8458927521        8.8693845229       20.2792380806
  O         0.2628769156       15.9598504187        9.5623236998
  O         6.1542456296        2.4391957584       17.7318624001
  O         6.1094899769       16.3607301242       16.2685461141
  O        17.2600186018       17.6142162388       16.5686926896
  O         4.3475023057        2.7039427903        6.1052799249
  O        16.0023985637        1.4563623626       11.6304365765
  O         2.9121984157        6.4885477951        3.9086939468
  O        17.7959968310       20.8920850733        8.4776178123
  O         0.2793786071       18.5878127700       16.2831986639
  O        15.8047868071        8.3360122588        2.6512685851
  O         1.5595075190        5.4189589247       10.0837774594
  O         1.5287272793       19.4146958513       19.9977947787
  O         0.5712138246       12.1711136435        7.5397819410
  O         6.6821707295        4.1925256170        1.7922599033
  O         2.8296165868       15.8050146252       12.7351418660
  O         3.6667484533       20.5047416941        1.5848372369
  O        11.3279465331        3.2747495214        0.6087405072
  O         3.5652298334       19.8318749152       18.4259045927
  O        16.2204041747        5.7066313258        8.5783162199
  O         2.6263166091       14.3102295169        4.7014770707
  O        12.4470869244        8.7939223860        2.3887218533
  O        13.0827590248        5.0463175454       17.0839754613
  O         8.8216076509       14.6041629375       19.5462240454
  O         5.9986015469        8.9255140360        4.2556614955
  O         7.5329662679       19.4809683570       18.5595331495
  O         7.9462932931        4.9590664654       -0.3557622531
  O        14.3781689745       19.1432583574       13.0555115212
  O         1.1223843536        3.3669525435        2.3858150542
  O        18.7708699203       15.5776665484        6.3515132971
  O         8.4699025399        1.2806336123       14.7068132843
  O         8.9155175746       10.2412856047        5.2783268143
  O        17.1079888582       12.5565422336        4.6070947898
  O        17.8529300700        6.5913277107       16.8392101180
  O        18.9575010982        8.9779095556       16.3923026211
  O        14.0925486740        2.1563723599       15.4185355359
  O         4.4556515349       18.5562064921       16.4320166351
  O         0.0670691438        2.5062068294       10.3664270833
  O        14.0908707761       15.1708252671        4.1718737528
  O        17.4002097279       17.6518600997        5.4301614931
  O        15.7371548272        5.1230202381        5.9760005495
  O         9.9869977018        1.9065712923       22.0029489743
  O         4.8884371125        2.7730233781        3.0923482377
  O         0.9728714633        6.7584813903       15.8235379052
  O        18.4142383590       11.3450987479       15.4673098194
  O         4.9567833901       13.6563221530        0.3042958433
 Na        13.3871847101       14.3219668989        6.3505808416
 Na        -0.6649866239       18.7608779906       14.2331800961
 Na        14.6987219885        3.4917061456       17.9502205649
 Na        14.1904013304       17.5431202094        7.2707998651
 Na         4.5167255446       13.0446599709       17.3771379777
 Na        13.0538791803       18.9955796110        3.9436178657
 Na         4.7872502196        3.8752969296       19.1329737937
 Na         2.4783619766       18.3013074916        2.7374916094
 Na         5.8804692025       15.8073773672       18.5316752895
 Na        19.0487150239       20.9582147932        3.4881270779
 Na        19.0906345814       16.7420236472        4.0837194837
 Na         3.2328286449       15.3422881544       20.0549691214
 Na        14.5398327761        5.2927421522       15.4664784866
 Na         2.0213556884       20.2527517138       10.4618341124
 Na        11.6473739108       18.6673053513       17.6225172490
 Na         7.4584028869       16.2123837928       13.2144033256
 Na        13.2452303337        3.4889795490       20.9582354910
 Na         5.5322085850       -0.6623053456       11.5805341827
 Na        19.7966550214       13.6003702713        5.6005844802
 Na        11.8080556837       19.7976862609        1.5442361954
 Na        17.4286201665       14.5248787923       12.6734345176
 Na         2.0661033234        9.7463174400        1.2854442818
 Na         4.7785062826       10.4383783951       10.2312264960
 Na        12.2600412550        3.3046074961       14.5299515589
 Na        12.5323884803        3.9598035815        7.9322392460
 Na        14.2242407414        8.3788768169        4.1885377520
 Na         0.8474339488        5.9696722746       13.6424532743
 Na         2.5830171976       12.6033979741       15.0279988484
 Na         4.2629333424       17.7383039022        5.3280729223
 Na        17.9564052955        5.5713469213       18.8035967371
 Na        11.1151068556       15.5644382809        0.1290516320
 Na         1.7490330501       16.3000274982        6.9374932814
 Na         8.0978460734       20.4641754621        2.6077848979
 Na        14.9901413893        1.9175807621        3.7051521726
 Na        18.6269235122       11.4618619422       12.6756720074
 Na         8.8247675761       15.3883449242       17.4620546189
 Na        16.7615102301       18.3113526735       21.3409871808
 Na        12.7240699367       19.5560017299       14.8866163194
 Na         2.4686936043       17.3961980963       10.3704919247
 Na        14.9411521880       17.0997869622       14.1892574114
 Na        14.2048479615       14.4004557226       11.7297828012
 Na        18.1789698666        8.4030227238       12.1646250055
 Na         4.7647222294        9.4858319317        2.5088828790
 Na        15.2553460176        5.2985489927       12.1801918777
 Na        10.5831044535        9.7628933813        3.6963398544
 Na         6.7199310040        7.9481572563       15.8647073365
 Na         5.6431369262       19.2640807174        0.4131351897
 Na         7.4472054903       12.8913937544        0.7289854906
 Na        15.8264379919        8.0735344554        8.8744300643
 Na        11.3693616588       16.0615687588        3.8908642349
 Na        16.2912097750       19.0955128088        8.3212703996
 Na         4.7911611342       13.9741818931        2.7528759487
 Na        16.7372240649        2.1499622099        6.3126636412
 Na         9.8819205671       17.9428427344       15.5864277875
 Na         6.2606853034       17.3179919361        2.8630904006
 Na         4.4531671495        6.3982097608        2.2795078632
 Na        18.2266020429        5.1914788160        6.4179427525
 Na        17.9567347938       11.3986815662        6.4385256310
 Na        17.7192434431        8.2270682317        3.6677736959
 Na         2.4964932653        3.8320413581        8.7228353559
 Na        13.1676708446       13.9042979785       17.7175412205
 Na         9.8907887634        8.1889165976       17.7678598305
 Na         3.0659886302        3.8827646569        3.6644419518
 Na         1.3958265572        6.9870503179        6.3941377592
 Na        19.3176394444       14.1188121297        8.7837513049
 Na         1.4329194182       13.2399630849        1.7498787508
 Na         7.7499023857       10.3503525665        3.1280310807
 Na        19.9914644315       10.1704790029        4.2979241892
 Na         0.6754085274       15.2908731400       11.9420680817
 Na        11.5904709870       18.9512398720        8.7285571385
 Na        16.5570534515        8.4674670216       17.5651864907
 Na         1.0203535538        4.0007323272       11.8699736394
 Na        16.3040130300       14.4562404868        5.7385045295
 Na         9.2857397154        4.1094997069        4.8556947973
 Na        -1.0029374591       13.5258310420       19.1139962833
 Na         5.9036422621        2.8187862129       12.3580716047
 Na        10.0125075173        9.7711517302       10.1151558470
 Na        10.2409705538       20.0088429206        4.4397690889
 Na        20.0023791347       19.7058717829        7.6877578982
 Na        15.9195805608       15.6305056164        9.4241730124
 Na        15.8326367582        2.7780865366        9.7686813416
 Na         3.8827364337        5.3565686909        5.7612504133
 Na        16.2530134777       16.2744367003       17.9952252922
 Na        10.6160756249       11.7681840720       19.9415424854
 Na         5.1769960204        1.3527660544       15.7856888842
 Na        11.7943199057        6.2956110337        6.2276277017
 Na         8.7523683199        2.7587419196       12.9477359060
 Na        12.0044072965       22.1113285879       17.7351158858
 Na         6.7611062820       13.7236073626        8.0264432275
 Na        10.5649805960        5.3049405758       18.9195121374
 Na        12.2405496527        6.4674930979        2.7523973023
 Na         5.8248054201       16.7895925465        8.9144347287
 Na         4.4892189154       14.7268751931       14.8438886966
 Na         1.4053954182       11.2421834193       18.2428895005
 Na        12.8039294932       13.2548682885        3.2604845914
 Na        13.7474421422        1.4725433983        7.5521694053
 Na        10.3861800641        2.1401673978        6.9896805587
 Na        -0.8721949879       20.0240557488       11.0655636612
 Na        17.4110121457        3.0762520180       12.5191776392
 Na        17.5349227353        5.1887193566       14.8678681975
 Na        10.0316847694       11.2639378051       15.0813630794
 Na        -1.4407989084       15.9696104400       15.3661463423
 Na         2.4801377503        0.9364147565       13.9323373216
 Na        12.3029522695       12.6620256457        9.0230890489
 Na        19.1245492033        4.8740126696        3.3231886424
 Na        15.1559044017       13.5282899352       15.4318875056
 Na         0.2955519688       16.1277388904       20.2786931090
 Na        15.5230293741       11.0990604491        3.9118526618
 Na         3.9015445410        9.0140448075        5.3986223421
 Na         2.6351981992       12.0994104253        3.9014984629
 Na         1.6247974236        4.1864712295       17.1002468024
 Na        18.7494695547        8.9721945435        8.3681034591
 Na        16.1459407080       10.3591905162       15.1471981812
 Na         5.9313306147        4.2727146073       16.3262898235
 Na        13.5146308010        6.6802100754       18.9476278047
 Na         6.3978839912        9.8542596220       -0.1433585683
 Na         1.3853282866       11.9128410763        9.7924367442
 Na         8.7595142321        7.5502497026        1.3645061061
 Na         1.8849985959        9.1516242393       12.4551521662
 Na         5.4666528529        3.1121554603        8.4958415409
 Na        14.8674449391       19.6243715010       16.9511635507
 Na        13.6352396789       20.4631603121       11.2067525113
 Na         6.9341218231        7.3949834271       11.9110317651
 Na         3.8745879374       10.1215501222       16.7503607651
 Si         0.8984176229        3.1887459694        6.2134032216
 Si         7.9954054210        3.9278711112        0.8979776457
 Si         4.6029926516       12.0514002860        0.6389267363
 Si        17.6400779980       16.7296650670        6.8268521062
 Si        17.3973874010        2.4224550669       19.9886940427
 Si         1.8121036592        7.4727595654        3.2662656992
 Si        18.0770781835       12.3866192881        3.3934266962
 Si         3.4714253609        1.3897865005        5.7461404297
 Si         6.1617966349        3.8135545355        3.3205418217
 Si         9.5982588253        1.7491461764       15.7915373937
 Si        17.7677563209        2.2777434733       16.8970580658
 Si         9.6484274793       17.9972061723        2.3939036068
 Si        16.0808493952       18.6751618251        5.0156537317
 Si        14.1731875019       12.9798313624       20.3040123722
 Si        19.0262287083       17.4162401004        9.3932260485
 Si        10.5455799262        3.2806286693        2.0106467878
 Si         8.6576798861       18.2659476252       18.9399040622
 Si        12.0944722952        6.1681336763       16.3460756803
 Si        17.5127742225        5.2889866154        9.6996711435
 Si        11.4897725291        8.8001008807        1.0726251306
 Si        14.7410699106        5.1418867955        4.5897176232
 Si         3.1952839128       17.1642425515       13.4776360433
 Si        18.1990621775       12.8717222395       16.0836497066
 Si         2.7264721188       20.5148430476       19.6503354687
 Si        13.6487255614       17.3675851521       19.7349395099
 Si        14.4646212512       20.2749800640       19.8830394282
 Si        13.5039025494       16.4991416560       16.7278330960
 Si        18.2262291419       18.6656135235       17.1714531603
 Si         4.6835677378       20.5921103156        2.8748368413
 Si         0.7285448825        6.7644640308       10.1607549210
 Si         8.1912087478       15.7052000267        1.1503754302
 Si         3.7250639434       18.2666036349       17.9227812380
 Si        18.0611815115       10.4944757908       20.4154092009
 Si         7.5571690422        1.8060641982       18.1880325119
 Si        19.2376878146        7.4087079523       16.7671976732
 Si        16.7119367613       14.7803373905        1.6967940658
 Si         2.6613419636        8.5525419516        8.7438108575
 Si        16.0384018322       11.6779003054       18.2422406715
 Si        18.8756281453        2.5520063540        8.8861602866
 Si         0.2478236464       10.1964959496       15.3368661122
 Si        15.7926343468       19.8071477782       12.8565810555
 Si        15.0954896332        5.0460831214        7.5166572101
 Si         3.3550072276        3.9760333391       14.3740911534
 Si        15.5170809054        2.5215695498       14.7939863694
 Si        -0.1296695518       19.2679748894       20.1281025573
 Si         1.3218688287       14.5840824398       17.1950719637
 Si         1.5511077388        6.6989177715       19.4004112816
 Si         7.2325772964        6.2191190964       18.3176436930
 Si         4.4271498417        0.4866270786        8.3642358892
 Si        16.1787309293        5.0262048631        1.7269744186
 Si        12.1610768348        3.2373842468        4.6522919107
 Si         2.6437338873       15.7071486260        3.8400514287
 Si         0.3610141238        2.7607451807       14.5187348983
 Si         4.4826458221        7.3369693040       18.6764935560
 Si        17.2723532267       17.2263736568       11.9275773015
 Si         5.5087220909       17.6449902588       15.5313213593
 Si         1.4786112558       10.8160187120        7.0869321417
 Si        14.8634312525       16.2127267167        3.2503089627
 Si         7.6186571286       19.4588254745       13.9289174262
 Si         1.9456559557        3.8994358877        1.1265387071
 Si         1.4494998098       17.3545068262       16.2626005438
 Si        16.4450672016        7.9451144165        1.2085765511
 Se         4.4232909920        8.1534391990       13.8117103655
 Se         6.8087182477        5.1901933271        6.8325026126
 Se         5.5422506564        5.4109047101       10.3944251751
 Se         8.3629800313        5.5129973531       13.1528529831
 Se         8.1830524442        2.6360569750        9.9561160813
 Se        11.2693574092        1.3251256851       12.4469928617
 Se         2.9970213689       12.0904541031       12.2271085021
 Se         5.8174177142       12.6201813953        5.2723244008
 Se         6.8513333348        9.4484147009        8.2941639295
 Se         7.6283972478       10.3646651644       12.5689348670
 Se         9.4401524243        7.0081097609        4.2698333245
 Se        10.1132189891        7.3185926052        8.8421179885
 Se        11.2718913744        8.9957508741       13.1110658430
 Se         8.5947101094       10.8519806137       17.4971306851
 Se        12.5757822183        5.0622129765       11.1372425113
 Se        15.9832795486        7.9259943087       13.8087436888
 Se         6.9607843055       16.3941826505        6.3503647446
 Se         3.6943087558       14.7917442111        8.6629666855
 Se         6.6064860562       14.6709494518       11.1332792847
 Se         9.8753103439       13.3180296072        3.5906547516
 Se         9.4265641670       13.2806699747        8.3169573544
 Se        10.9010168675       12.3438122447       11.4916941445
 Se         8.7474738752       14.1949883657       14.4796619641
 Se        16.4049749805        8.8277673060        6.2592864900
 Se        12.8944956803       11.5956877863        5.7231887915
 Se        15.2945396027       12.2277155964       12.8738210601
 Se        12.6666681798       12.0511480743       15.7081150608
 Se        13.4496445829        9.5354142999        9.6840008033
 Se         9.0800622607       17.4597335014        9.7450972814
 Se        11.9676503022       16.3669535040       12.9626038208
 Se        11.1713345729       17.3727800478        6.3950910331
 Se        12.9890202203       15.5020978728        9.3404414225
 Se        15.9950519017       12.8248186966        8.0316665339
 Cd         5.5123750760        7.1214995594        8.3299922303
 Cd         8.5061971883        5.1379129272        8.8822988714
 Cd         3.4402956762        6.3532656305       11.7044836564
 Cd         3.2358792518        7.0401118561       15.9129056190
 Cd        10.9232799208        2.8685621739       10.3919491594
 Cd         8.0981271511        0.3432325790        8.5530226099
 Cd         3.6317113561       13.2612522837        6.5193761250
 Cd         6.7299866625       10.2918699701        5.8977599026
 Cd         5.1799573608       10.9240214237       13.5952870061
 Cd         7.2302834410       12.3525513236       15.7632426231
 Cd         6.8151904988        6.8499767219        4.6714789384
 Cd         9.0646485447        8.4731783373        6.6821690931
 Cd        10.7890961835        6.2464091151       12.6815953010
 Cd         9.2319695128        5.1769360296       15.6145446404
 Cd        12.7042955880        6.9970422756        9.3704964410
 Cd        13.2715152786        7.9601275040       14.1916467415
 Cd         7.7421554997       14.5972286308        4.5004196216
 Cd         4.0896616559       14.2534094062       11.3208689019
 Cd        10.8356517637       15.0558231498       10.6766909529
 Cd         6.7026744177       21.6031088891        6.0818170774
 Cd        10.0343248739       11.9520774254        5.9190043109
 Cd         8.2835854086       12.8725015766       12.1525139342
 Cd        11.4823051046       14.5777919623       14.8806684406
 Cd        14.2212608239        9.6253278825        1.0761446157
 Cd        14.7428178328       10.5470858911        7.3648641732
 Cd        12.7790271304       11.2972697454       13.0797735592
 Cd        12.9249438200        9.8654856352       17.2557891420
 Cd        15.2638866598        9.7672776711       11.6480718146
 Cd         8.5817117117       18.2497125501        5.8138028952
 Cd        10.3008391976       18.3229676392       11.9853464879
 Cd        13.9947690796       17.6155586086       10.9172936128
 Cd         9.5334300483       15.5898970792        7.3943289582
 Cd        17.3040170064       11.9666062249       10.0471009305
