LAMMPS data file for mol object with MOF-FF params from www.mofplus.org

      2176 atoms
      2544 bonds
      4528 angles
      7936 dihedrals
      1280 impropers
         7 atom types
         7 bond types
        12 angle types
        19 dihedral types
         5 improper types

    0.000000    30.846200  xlo xhi
    0.000000    30.808400  ylo yhi
    0.000000    36.875800  zlo zhi
    0.000000     0.000000     0.000000  xy xz yz

Masses

    1    12.0107 # buck6d->(c3_h1n2@imid)|ZIF8_H/gaussian->(c3_h1n2@imid)|ZIF8_H
    2     1.0079 # buck6d->(h1_c1S@imid)|ZIF8_H/gaussian->(h1_c1S@imid)|ZIF8_H
    3    12.0107 # buck6d->(c3_c1h1n1@imid)|ZIF8_H/gaussian->(c3_c1h1n1@imid)|ZIF8_H
    4     1.0079 # buck6d->(h1_c1@imid)|ZIF8_H/gaussian->(h1_c1@imid)|ZIF8_H
    5    14.0067 # buck6d->(n3_c2zn1@imid)|ZIF8_H/gaussian->(n3_c2zn1@imid)|ZIF8_H
    6    65.3800 # buck6d->(zn4_n4@zn4tet)|ZIF8_H/gaussian->(zn4_n4@zn4tet)|ZIF8_H
    7    65.3800 # buck6d->(zn3_n3@zn4tet)|ZIF8_H/gaussian->(zn3_n3@zn4tet)|ZIF8_H

Atoms

         1     1     1  -0.05190000     2.139801     0.794857     9.787944 # buck6d->(c3_h1n2@imid)|ZIF8_H
         2     1     2   0.11450000     1.905216     0.907461     8.757818 # buck6d->(h1_c1S@imid)|ZIF8_H
         3     1     3  -0.15040000     3.089401     1.500061    11.710648 # buck6d->(c3_c1h1n1@imid)|ZIF8_H
         4     1     4   0.14200000     3.581398     2.199566    12.397275 # buck6d->(h1_c1@imid)|ZIF8_H
         5     1     3  -0.15040000     2.892911     0.121385    11.778684 # buck6d->(c3_c1h1n1@imid)|ZIF8_H
         6     1     4   0.14200000     2.995937    14.890778    12.706294 # buck6d->(h1_c1@imid)|ZIF8_H
         7     1     3  -0.15040000     0.335915     0.448724     0.266059 # buck6d->(c3_c1h1n1@imid)|ZIF8_H
         8     1     4   0.14200000    15.230003     1.191823    18.050888 # buck6d->(h1_c1@imid)|ZIF8_H
         9     1     3  -0.15040000     2.176508     4.351532     6.727437 # buck6d->(c3_c1h1n1@imid)|ZIF8_H
        10     1     4   0.14200000     1.076532     4.489400     6.796026 # buck6d->(h1_c1@imid)|ZIF8_H
        11     1     1  -0.05190000     4.200173     3.713182     7.159805 # buck6d->(c3_h1n2@imid)|ZIF8_H
        12     1     2   0.11450000     4.970557     3.270774     7.741521 # buck6d->(h1_c1S@imid)|ZIF8_H
        13     1     1  -0.05190000    11.329501    12.134196    14.929905 # buck6d->(c3_h1n2@imid)|ZIF8_H
        14     1     2   0.11450000    10.821772    11.219033    15.223990 # buck6d->(h1_c1S@imid)|ZIF8_H
        15     1     3  -0.15040000     7.946444     4.511736     2.758310 # buck6d->(c3_c1h1n1@imid)|ZIF8_H
        16     1     4   0.14200000     8.921030     4.750501     3.280471 # buck6d->(h1_c1@imid)|ZIF8_H
        17     1     1  -0.05190000     1.793244    11.191922     2.158525 # buck6d->(c3_h1n2@imid)|ZIF8_H
        18     1     2   0.11450000     0.916749    11.260008     1.538090 # buck6d->(h1_c1S@imid)|ZIF8_H
        19     1     3  -0.15040000     3.241781    11.219187     3.755431 # buck6d->(c3_c1h1n1@imid)|ZIF8_H
        20     1     4   0.14200000     3.772799    11.610300     4.579052 # buck6d->(h1_c1@imid)|ZIF8_H
        21     1     3  -0.15040000    14.628193     5.757628    11.124691 # buck6d->(c3_c1h1n1@imid)|ZIF8_H
        22     1     4   0.14200000    13.829123     6.540777    11.223887 # buck6d->(h1_c1@imid)|ZIF8_H
        23     1     3  -0.15040000    11.482344    14.311734    14.667349 # buck6d->(c3_c1h1n1@imid)|ZIF8_H
        24     1     4   0.14200000    11.197171    15.377551    14.898192 # buck6d->(h1_c1@imid)|ZIF8_H
        25     1     5  -0.15320000     2.606350     1.882701    10.475862 # buck6d->(n3_c2zn1@imid)|ZIF8_H
        26     1     5  -0.15320000     2.301127    15.096270    10.592942 # buck6d->(n3_c2zn1@imid)|ZIF8_H
        27     1     5  -0.15320000    15.134225     4.979870    12.149470 # buck6d->(n3_c2zn1@imid)|ZIF8_H
        28     1     5  -0.15320000     1.505449    15.163124    18.361751 # buck6d->(n3_c2zn1@imid)|ZIF8_H
        29     1     5  -0.15320000     2.949822     3.740910     7.730827 # buck6d->(n3_c2zn1@imid)|ZIF8_H
        30     1     5  -0.15320000    10.676949    13.305840    15.203708 # buck6d->(n3_c2zn1@imid)|ZIF8_H
        31     1     5  -0.15320000     6.723392     4.496024     3.484026 # buck6d->(n3_c2zn1@imid)|ZIF8_H
        32     1     5  -0.15320000     2.227404    12.018665     3.154540 # buck6d->(n3_c2zn1@imid)|ZIF8_H
        33     1     6   0.52120000     2.545120     3.685763     9.608174 # buck6d->(zn4_n4@zn4tet)|ZIF8_H
        34     1     6   0.52120000     6.020253     4.731400     5.398986 # buck6d->(zn4_n4@zn4tet)|ZIF8_H
        35     1     1  -0.05190000     2.199180     7.486287    14.965859 # buck6d->(c3_h1n2@imid)|ZIF8_H
        36     1     2   0.11450000     2.079651     7.355660    16.017004 # buck6d->(h1_c1S@imid)|ZIF8_H
        37     1     3  -0.15040000     3.167134     7.957348    13.026008 # buck6d->(c3_c1h1n1@imid)|ZIF8_H
        38     1     4   0.14200000     3.877367     8.408074    12.303058 # buck6d->(h1_c1@imid)|ZIF8_H
        39     1     3  -0.15040000     2.336754     6.861801    12.868548 # buck6d->(c3_c1h1n1@imid)|ZIF8_H
        40     1     4   0.14200000     2.182677     6.233310    11.962510 # buck6d->(h1_c1@imid)|ZIF8_H
        41     1     3  -0.15040000    11.132548     2.754425    12.887355 # buck6d->(c3_c1h1n1@imid)|ZIF8_H
        42     1     4   0.14200000    11.667575     2.044291    13.501705 # buck6d->(h1_c1@imid)|ZIF8_H
        43     1     3  -0.15040000     6.988978    12.504667    13.639068 # buck6d->(c3_c1h1n1@imid)|ZIF8_H
        44     1     4   0.14200000     7.298057    13.422604    13.080399 # buck6d->(h1_c1@imid)|ZIF8_H
        45     1     1  -0.05190000     6.776293    11.140317    15.261419 # buck6d->(c3_h1n2@imid)|ZIF8_H
        46     1     2   0.11450000     6.853563    10.685894    16.278638 # buck6d->(h1_c1S@imid)|ZIF8_H
        47     1     1  -0.05190000    14.056459     9.754093     1.384133 # buck6d->(c3_h1n2@imid)|ZIF8_H
        48     1     2   0.11450000    14.363533     9.906749     2.441731 # buck6d->(h1_c1S@imid)|ZIF8_H
        49     1     3  -0.15040000    12.636609     6.859182    14.565019 # buck6d->(c3_c1h1n1@imid)|ZIF8_H
        50     1     4   0.14200000    11.971256     5.953723    14.883073 # buck6d->(h1_c1@imid)|ZIF8_H
        51     1     1  -0.05190000     0.828375     2.648598    15.340517 # buck6d->(c3_h1n2@imid)|ZIF8_H
        52     1     2   0.11450000     1.897504     2.976862    15.343467 # buck6d->(h1_c1S@imid)|ZIF8_H
        53     1     3  -0.15040000    14.097947     2.714528    15.060630 # buck6d->(c3_c1h1n1@imid)|ZIF8_H
        54     1     4   0.14200000    13.099302     3.111956    14.832369 # buck6d->(h1_c1@imid)|ZIF8_H
        55     1     3  -0.15040000     7.878119    12.284079     0.330223 # buck6d->(c3_c1h1n1@imid)|ZIF8_H
        56     1     4   0.14200000     6.807294    12.705538     0.132200 # buck6d->(h1_c1@imid)|ZIF8_H
        57     1     3  -0.15040000    14.072653     8.712461    17.865588 # buck6d->(c3_c1h1n1@imid)|ZIF8_H
        58     1     4   0.14200000    14.476276     8.225689    16.978356 # buck6d->(h1_c1@imid)|ZIF8_H
        59     1     5  -0.15320000     3.166517     8.313493    14.411431 # buck6d->(n3_c2zn1@imid)|ZIF8_H
        60     1     5  -0.15320000     1.718133     6.603935    14.059821 # buck6d->(n3_c2zn1@imid)|ZIF8_H
        61     1     5  -0.15320000     8.848695    12.330292    17.772292 # buck6d->(n3_c2zn1@imid)|ZIF8_H
        62     1     5  -0.15320000     9.888212     3.205922    13.287457 # buck6d->(n3_c2zn1@imid)|ZIF8_H
        63     1     5  -0.15320000     7.513672    12.279612    14.886760 # buck6d->(n3_c2zn1@imid)|ZIF8_H
        64     1     5  -0.15320000    14.893779     9.019929     0.594069 # buck6d->(n3_c2zn1@imid)|ZIF8_H
        65     1     5  -0.15320000    14.057230     6.987807    14.523718 # buck6d->(n3_c2zn1@imid)|ZIF8_H
        66     1     5  -0.15320000    15.236326     3.516163    14.915155 # buck6d->(n3_c2zn1@imid)|ZIF8_H
        67     1     6   0.52120000     4.435221     9.685853    15.255518 # buck6d->(zn4_n4@zn4tet)|ZIF8_H
        68     1     6   0.52120000     0.013264     5.261921    14.072174 # buck6d->(zn4_n4@zn4tet)|ZIF8_H
        69     1     1  -0.05190000    11.586604     7.950108     2.811042 # buck6d->(c3_h1n2@imid)|ZIF8_H
        70     1     2   0.11450000    12.318584     7.928696     2.080164 # buck6d->(h1_c1S@imid)|ZIF8_H
        71     1     3  -0.15040000    10.554027     7.740456     4.653726 # buck6d->(c3_c1h1n1@imid)|ZIF8_H
        72     1     4   0.14200000    10.186186     7.390319     5.656932 # buck6d->(h1_c1@imid)|ZIF8_H
        73     1     3  -0.15040000    10.086553     8.861882     3.984615 # buck6d->(c3_c1h1n1@imid)|ZIF8_H
        74     1     4   0.14200000     9.277920     9.597279     4.264133 # buck6d->(h1_c1@imid)|ZIF8_H
        75     1     3  -0.15040000    15.375597     6.845935     4.938038 # buck6d->(c3_c1h1n1@imid)|ZIF8_H
        76     1     4   0.14200000    15.304805     6.724395     6.029931 # buck6d->(h1_c1@imid)|ZIF8_H
        77     1     3  -0.15040000    13.043778    11.037263     4.600256 # buck6d->(c3_c1h1n1@imid)|ZIF8_H
        78     1     4   0.14200000    12.478676    10.254730     5.053091 # buck6d->(h1_c1@imid)|ZIF8_H
        79     1     1  -0.05190000    13.456501    12.613575     3.239539 # buck6d->(c3_h1n2@imid)|ZIF8_H
        80     1     2   0.11450000    13.302578    13.351898     2.367611 # buck6d->(h1_c1S@imid)|ZIF8_H
        81     1     1  -0.05190000    10.011443    12.014660    18.383693 # buck6d->(c3_h1n2@imid)|ZIF8_H
        82     1     2   0.11450000    11.024740    11.917305    17.856369 # buck6d->(h1_c1S@imid)|ZIF8_H
        83     1     3  -0.15040000     2.664495    14.478562     6.042837 # buck6d->(c3_c1h1n1@imid)|ZIF8_H
        84     1     4   0.14200000     3.404804    14.847954     5.364138 # buck6d->(h1_c1@imid)|ZIF8_H
        85     1     1  -0.05190000     8.135068    15.280504     3.415805 # buck6d->(c3_h1n2@imid)|ZIF8_H
        86     1     2   0.11450000     9.120296    15.172675     3.923032 # buck6d->(h1_c1S@imid)|ZIF8_H
        87     1     3  -0.15040000     6.181270    14.680203     2.667780 # buck6d->(c3_c1h1n1@imid)|ZIF8_H
        88     1     4   0.14200000     5.282258    14.001185     2.596425 # buck6d->(h1_c1@imid)|ZIF8_H
        89     1     3  -0.15040000    12.849910     9.307218    18.060661 # buck6d->(c3_c1h1n1@imid)|ZIF8_H
        90     1     4   0.14200000    12.005187     9.214022    17.386387 # buck6d->(h1_c1@imid)|ZIF8_H
        91     1     3  -0.15040000     8.532213    11.892505     1.573306 # buck6d->(c3_c1h1n1@imid)|ZIF8_H
        92     1     4   0.14200000     8.178253    11.726139     2.606566 # buck6d->(h1_c1@imid)|ZIF8_H
        93     1     5  -0.15320000    11.489747     7.163107     3.892425 # buck6d->(n3_c2zn1@imid)|ZIF8_H
        94     1     5  -0.15320000    10.707333     8.993896     2.786704 # buck6d->(n3_c2zn1@imid)|ZIF8_H
        95     1     5  -0.15320000    12.835875     9.998866     0.921342 # buck6d->(n3_c2zn1@imid)|ZIF8_H
        96     1     5  -0.15320000    14.418131     6.357159     4.079385 # buck6d->(n3_c2zn1@imid)|ZIF8_H
        97     1     5  -0.15320000    12.506438    11.653431     3.557777 # buck6d->(n3_c2zn1@imid)|ZIF8_H
        98     1     5  -0.15320000     9.823898    11.641724     1.238474 # buck6d->(n3_c2zn1@imid)|ZIF8_H
        99     1     5  -0.15320000     1.379905    14.089914     5.635360 # buck6d->(n3_c2zn1@imid)|ZIF8_H
       100     1     5  -0.15320000     7.227727    14.293557     3.486054 # buck6d->(n3_c2zn1@imid)|ZIF8_H
       101     1     6   0.52120000    12.670231     5.624998     4.459206 # buck6d->(zn4_n4@zn4tet)|ZIF8_H
       102     1     6   0.52120000    11.352327    10.809897     2.146172 # buck6d->(zn4_n4@zn4tet)|ZIF8_H
       103     1     1  -0.05190000    12.052227     5.057045     7.304358 # buck6d->(c3_h1n2@imid)|ZIF8_H
       104     1     2   0.11450000    11.886275     3.994309     7.021521 # buck6d->(h1_c1S@imid)|ZIF8_H
       105     1     3  -0.15040000    12.395237     6.983032     8.297608 # buck6d->(c3_c1h1n1@imid)|ZIF8_H
       106     1     4   0.14200000    12.213861     7.747388     9.101869 # buck6d->(h1_c1@imid)|ZIF8_H
       107     1     3  -0.15040000    12.850681     7.080386     7.001055 # buck6d->(c3_c1h1n1@imid)|ZIF8_H
       108     1     4   0.14200000    13.214049     7.942714     6.376195 # buck6d->(h1_c1@imid)|ZIF8_H
       109     1     3  -0.15040000     6.697481     8.804733     6.584543 # buck6d->(c3_c1h1n1@imid)|ZIF8_H
       110     1     4   0.14200000     7.322734     9.778432     6.671201 # buck6d->(h1_c1@imid)|ZIF8_H
       111     1     3  -0.15040000     5.091474     4.896533    11.095744 # buck6d->(c3_c1h1n1@imid)|ZIF8_H
       112     1     4   0.14200000     5.182933     3.919137    11.625280 # buck6d->(h1_c1@imid)|ZIF8_H
       113     1     1  -0.05190000     3.911607     6.355157    10.017495 # buck6d->(c3_h1n2@imid)|ZIF8_H
       114     1     2   0.11450000     3.132123     6.822212     9.363503 # buck6d->(h1_c1S@imid)|ZIF8_H
       115     1     1  -0.05190000     0.623402     4.114770    11.528481 # buck6d->(c3_h1n2@imid)|ZIF8_H
       116     1     2   0.11450000     1.201459     3.225023    11.924343 # buck6d->(h1_c1S@imid)|ZIF8_H
       117     1     3  -0.15040000     2.173423     4.782080    17.843646 # buck6d->(c3_c1h1n1@imid)|ZIF8_H
       118     1     4   0.14200000     1.891026     3.834413    17.429531 # buck6d->(h1_c1@imid)|ZIF8_H
       119     1     1  -0.05190000     3.294220    12.543486    15.641792 # buck6d->(c3_h1n2@imid)|ZIF8_H
       120     1     2   0.11450000     4.223924    12.870363    15.220855 # buck6d->(h1_c1S@imid)|ZIF8_H
       121     1     3  -0.15040000     1.314357    12.309650    16.579175 # buck6d->(c3_c1h1n1@imid)|ZIF8_H
       122     1     4   0.14200000     0.297203    12.582305    16.908107 # buck6d->(h1_c1@imid)|ZIF8_H
       123     1     3  -0.15040000    12.620106    13.726220    14.074755 # buck6d->(c3_c1h1n1@imid)|ZIF8_H
       124     1     4   0.14200000    13.593766    14.163084    13.735129 # buck6d->(h1_c1@imid)|ZIF8_H
       125     1     3  -0.15040000    15.288611     5.434602     9.905024 # buck6d->(c3_c1h1n1@imid)|ZIF8_H
       126     1     4   0.14200000    15.121424     5.911516     8.955104 # buck6d->(h1_c1@imid)|ZIF8_H
       127     1     5  -0.15320000    11.940101     5.686769     8.540620 # buck6d->(n3_c2zn1@imid)|ZIF8_H
       128     1     5  -0.15320000    12.641852     5.864071     6.413070 # buck6d->(n3_c2zn1@imid)|ZIF8_H
       129     1     5  -0.15320000    12.532040    12.322744    14.321639 # buck6d->(n3_c2zn1@imid)|ZIF8_H
       130     1     5  -0.15320000     5.990332     8.247409     7.624625 # buck6d->(n3_c2zn1@imid)|ZIF8_H
       131     1     5  -0.15320000     3.915771     5.002206    10.360994 # buck6d->(n3_c2zn1@imid)|ZIF8_H
       132     1     5  -0.15320000     0.718100     4.416846    10.192287 # buck6d->(n3_c2zn1@imid)|ZIF8_H
       133     1     5  -0.15320000     3.325529     4.951526     0.136256 # buck6d->(n3_c2zn1@imid)|ZIF8_H
       134     1     5  -0.15320000     2.229409    13.252233    16.169301 # buck6d->(n3_c2zn1@imid)|ZIF8_H
       135     1     6   0.52120000     5.872500     8.649920     9.612968 # buck6d->(zn4_n4@zn4tet)|ZIF8_H
       136     1     6   0.52120000     2.097850    15.267719    16.470576 # buck6d->(zn4_n4@zn4tet)|ZIF8_H
       137     1     1  -0.05190000     8.343897     7.551909     9.627718 # buck6d->(c3_h1n2@imid)|ZIF8_H
       138     1     2   0.11450000     8.267707     7.546980     8.554079 # buck6d->(h1_c1S@imid)|ZIF8_H
       139     1     3  -0.15040000     8.361017     8.383736    11.540835 # buck6d->(c3_c1h1n1@imid)|ZIF8_H
       140     1     4   0.14200000     8.003664     8.946143    12.414422 # buck6d->(h1_c1@imid)|ZIF8_H
       141     1     3  -0.15040000     9.281776     7.351963    11.524425 # buck6d->(c3_c1h1n1@imid)|ZIF8_H
       142     1     4   0.14200000     9.969955     6.894458    12.287385 # buck6d->(h1_c1@imid)|ZIF8_H
       143     1     3  -0.15040000     1.940689    11.085170    16.526443 # buck6d->(c3_c1h1n1@imid)|ZIF8_H
       144     1     4   0.14200000     1.623436    10.081895    16.820159 # buck6d->(h1_c1@imid)|ZIF8_H
       145     1     3  -0.15040000    12.074282     8.097064    14.193864 # buck6d->(c3_c1h1n1@imid)|ZIF8_H
       146     1     4   0.14200000    11.029213     8.369718    14.279600 # buck6d->(h1_c1@imid)|ZIF8_H
       147     1     1  -0.05190000    14.307393     8.242787    14.016307 # buck6d->(c3_h1n2@imid)|ZIF8_H
       148     1     2   0.11450000    15.336114     8.570281    13.880235 # buck6d->(h1_c1S@imid)|ZIF8_H
       149     1     1  -0.05190000     8.057027     4.838459     7.687129 # buck6d->(c3_h1n2@imid)|ZIF8_H
       150     1     2   0.11450000     7.672221     5.783353     8.058469 # buck6d->(h1_c1S@imid)|ZIF8_H
       151     1     3  -0.15040000     5.926018    11.650659    13.272154 # buck6d->(c3_c1h1n1@imid)|ZIF8_H
       152     1     4   0.14200000     5.345184    11.615229    12.325736 # buck6d->(h1_c1@imid)|ZIF8_H
       153     1     1  -0.05190000     5.503579     7.015227     7.126617 # buck6d->(c3_h1n2@imid)|ZIF8_H
       154     1     2   0.11450000     4.721165     6.431716     7.499985 # buck6d->(h1_c1S@imid)|ZIF8_H
       155     1     3  -0.15040000     6.618515     7.844127     5.507769 # buck6d->(c3_c1h1n1@imid)|ZIF8_H
       156     1     4   0.14200000     7.158632     7.838581     4.582003 # buck6d->(h1_c1@imid)|ZIF8_H
       157     1     3  -0.15040000    14.489848    10.430492    10.645859 # buck6d->(c3_c1h1n1@imid)|ZIF8_H
       158     1     4   0.14200000    13.882487     9.548910    10.460374 # buck6d->(h1_c1@imid)|ZIF8_H
       159     1     3  -0.15040000     9.060146     2.893217     7.628681 # buck6d->(c3_c1h1n1@imid)|ZIF8_H
       160     1     4   0.14200000     9.805390     2.094817     7.905065 # buck6d->(h1_c1@imid)|ZIF8_H
       161     1     5  -0.15320000     7.754272     8.580447    10.338131 # buck6d->(n3_c2zn1@imid)|ZIF8_H
       162     1     5  -0.15320000     9.269437     6.800646    10.257741 # buck6d->(n3_c2zn1@imid)|ZIF8_H
       163     1     5  -0.15320000    14.498485    11.102577    11.801547 # buck6d->(n3_c2zn1@imid)|ZIF8_H
       164     1     5  -0.15320000     3.257821    11.226581    16.011104 # buck6d->(n3_c2zn1@imid)|ZIF8_H
       165     1     5  -0.15320000    13.094829     8.984346    13.844282 # buck6d->(n3_c2zn1@imid)|ZIF8_H
       166     1     5  -0.15320000     8.968070     4.084116     8.366935 # buck6d->(n3_c2zn1@imid)|ZIF8_H
       167     1     5  -0.15320000     5.805718    10.810051    14.374187 # buck6d->(n3_c2zn1@imid)|ZIF8_H
       168     1     5  -0.15320000     5.913062     6.746886     5.841680 # buck6d->(n3_c2zn1@imid)|ZIF8_H
       169     1     7   0.52120000    13.333116    10.849794    13.297229 # buck6d->(zn3_n3@zn4tet)|ZIF8_H
       170     1     6   0.52120000    10.265461     5.109881     9.610940 # buck6d->(zn4_n4@zn4tet)|ZIF8_H
       171     1     1  -0.05190000    10.824240     3.477652     3.244886 # buck6d->(c3_h1n2@imid)|ZIF8_H
       172     1     2   0.11450000    10.089175     3.641399     4.091739 # buck6d->(h1_c1S@imid)|ZIF8_H
       173     1     3  -0.15040000    11.945499     2.760895     1.485357 # buck6d->(c3_c1h1n1@imid)|ZIF8_H
       174     1     4   0.14200000    12.301465     2.285213     0.565675 # buck6d->(h1_c1@imid)|ZIF8_H
       175     1     3  -0.15040000    12.825387     3.509539     2.282796 # buck6d->(c3_c1h1n1@imid)|ZIF8_H
       176     1     4   0.14200000    13.863053     3.703632     2.258274 # buck6d->(h1_c1@imid)|ZIF8_H
       177     1     3  -0.15040000     6.484797     0.514346     2.045685 # buck6d->(c3_c1h1n1@imid)|ZIF8_H
       178     1     4   0.14200000     5.955939     1.120039     1.259493 # buck6d->(h1_c1@imid)|ZIF8_H
       179     1     3  -0.15040000     7.602354     4.333047     1.478535 # buck6d->(c3_c1h1n1@imid)|ZIF8_H
       180     1     4   0.14200000     8.302717     4.422238     0.649383 # buck6d->(h1_c1@imid)|ZIF8_H
       181     1     1  -0.05190000     5.744796     4.272047     2.591816 # buck6d->(c3_h1n2@imid)|ZIF8_H
       182     1     2   0.11450000     4.677980     4.033744     2.800348 # buck6d->(h1_c1S@imid)|ZIF8_H
       183     1     1  -0.05190000     5.396543     6.912173    16.290622 # buck6d->(c3_h1n2@imid)|ZIF8_H
       184     1     2   0.11450000     4.932924     6.424784    15.474561 # buck6d->(h1_c1S@imid)|ZIF8_H
       185     1     3  -0.15040000     2.976196     4.700592     5.634253 # buck6d->(c3_c1h1n1@imid)|ZIF8_H
       186     1     4   0.14200000     2.671127     5.133604     4.571124 # buck6d->(h1_c1@imid)|ZIF8_H
       187     1     1  -0.05190000    14.776564     6.764600     2.832799 # buck6d->(c3_h1n2@imid)|ZIF8_H
       188     1     2   0.11450000    14.227656     6.583447     1.936901 # buck6d->(h1_c1S@imid)|ZIF8_H
       189     1     3  -0.15040000     0.870017     7.538507     4.173419 # buck6d->(c3_c1h1n1@imid)|ZIF8_H
       190     1     4   0.14200000     1.798796     8.116627     4.417168 # buck6d->(h1_c1@imid)|ZIF8_H
       191     1     3  -0.15040000     8.865198     1.049334    15.903058 # buck6d->(c3_c1h1n1@imid)|ZIF8_H
       192     1     4   0.14200000     8.830187     1.087228    14.800471 # buck6d->(h1_c1@imid)|ZIF8_H
       193     1     3  -0.15040000     6.770741     7.177895    17.979534 # buck6d->(c3_c1h1n1@imid)|ZIF8_H
       194     1     4   0.14200000     7.496860     6.775691     0.275093 # buck6d->(h1_c1@imid)|ZIF8_H
       195     1     5  -0.15320000    10.695303     2.798635     2.092702 # buck6d->(n3_c2zn1@imid)|ZIF8_H
       196     1     5  -0.15320000    12.090631     3.928687     3.384092 # buck6d->(n3_c2zn1@imid)|ZIF8_H
       197     1     5  -0.15320000     8.648658    15.270646    16.612732 # buck6d->(n3_c2zn1@imid)|ZIF8_H
       198     1     5  -0.15320000     7.733605     0.858168     2.545721 # buck6d->(n3_c2zn1@imid)|ZIF8_H
       199     1     5  -0.15320000     6.215201     4.104295     1.347626 # buck6d->(n3_c2zn1@imid)|ZIF8_H
       200     1     5  -0.15320000     6.048169     6.192180    17.277050 # buck6d->(n3_c2zn1@imid)|ZIF8_H
       201     1     5  -0.15320000     4.275592     4.249711     5.935529 # buck6d->(n3_c2zn1@imid)|ZIF8_H
       202     1     5  -0.15320000     0.551376     7.418817     2.873915 # buck6d->(n3_c2zn1@imid)|ZIF8_H
       203     1     7   0.52120000     8.934756     2.077718     1.583631 # buck6d->(zn3_n3@zn4tet)|ZIF8_H
       204     1     6   0.52120000     1.355690     8.465532     1.380999 # buck6d->(zn4_n4@zn4tet)|ZIF8_H
       205     1     1  -0.05190000     3.784675     2.155356    17.153516 # buck6d->(c3_h1n2@imid)|ZIF8_H
       206     1     2   0.11450000     3.242244     2.096820    18.096799 # buck6d->(h1_c1S@imid)|ZIF8_H
       207     1     3  -0.15040000     5.115071     2.605774    15.474929 # buck6d->(c3_c1h1n1@imid)|ZIF8_H
       208     1     4   0.14200000     5.920157     3.125358    14.931565 # buck6d->(h1_c1@imid)|ZIF8_H
       209     1     3  -0.15040000     4.495062     1.363118    15.221593 # buck6d->(c3_c1h1n1@imid)|ZIF8_H
       210     1     4   0.14200000     4.712374     0.784998    14.281813 # buck6d->(h1_c1@imid)|ZIF8_H
       211     1     3  -0.15040000    14.501416     1.449843    15.609157 # buck6d->(c3_c1h1n1@imid)|ZIF8_H
       212     1     4   0.14200000    13.811078     0.589981    15.860466 # buck6d->(h1_c1@imid)|ZIF8_H
       213     1     3  -0.15040000     1.443294     6.002709    18.022310 # buck6d->(c3_c1h1n1@imid)|ZIF8_H
       214     1     4   0.14200000     0.467011     6.293078    17.712922 # buck6d->(h1_c1@imid)|ZIF8_H
       215     1     1  -0.05190000     3.297305     6.193567     0.672246 # buck6d->(c3_h1n2@imid)|ZIF8_H
       216     1     2   0.11450000     4.203103     6.753509     1.116415 # buck6d->(h1_c1S@imid)|ZIF8_H
       217     1     1  -0.05190000     8.569383     0.205030    17.879232 # buck6d->(c3_h1n2@imid)|ZIF8_H
       218     1     2   0.11450000     8.398341    14.996143     0.325060 # buck6d->(h1_c1S@imid)|ZIF8_H
       219     1     3  -0.15040000     5.705159     6.112233    11.184246 # buck6d->(c3_c1h1n1@imid)|ZIF8_H
       220     1     4   0.14200000     6.456727     6.484706    11.830863 # buck6d->(h1_c1@imid)|ZIF8_H
       221     1     1  -0.05190000     9.591626     4.104603    12.287570 # buck6d->(c3_h1n2@imid)|ZIF8_H
       222     1     2   0.11450000     8.763560     4.808729    12.507903 # buck6d->(h1_c1S@imid)|ZIF8_H
       223     1     3  -0.15040000    11.586604     3.369207    11.703088 # buck6d->(c3_c1h1n1@imid)|ZIF8_H
       224     1     4   0.14200000    12.388914     3.167720    10.934228 # buck6d->(h1_c1@imid)|ZIF8_H
       225     1     3  -0.15040000     6.568390     8.429178    17.404456 # buck6d->(c3_c1h1n1@imid)|ZIF8_H
       226     1     4   0.14200000     7.022137     9.348501    17.780773 # buck6d->(h1_c1@imid)|ZIF8_H
       227     1     3  -0.15040000     8.859183     2.098822    16.859247 # buck6d->(c3_c1h1n1@imid)|ZIF8_H
       228     1     4   0.14200000     9.042564     3.157553    16.628404 # buck6d->(h1_c1@imid)|ZIF8_H
       229     1     5  -0.15320000     4.757564     3.062971    16.793792 # buck6d->(n3_c2zn1@imid)|ZIF8_H
       230     1     5  -0.15320000     3.602682     1.142838    16.290991 # buck6d->(n3_c2zn1@imid)|ZIF8_H
       231     1     5  -0.15320000     5.769319     8.242633    16.312748 # buck6d->(n3_c2zn1@imid)|ZIF8_H
       232     1     5  -0.15320000     0.466857     1.374671    15.672768 # buck6d->(n3_c2zn1@imid)|ZIF8_H
       233     1     5  -0.15320000     2.199026     6.885523     0.304778 # buck6d->(n3_c2zn1@imid)|ZIF8_H
       234     1     5  -0.15320000     8.730246     1.548430    18.110812 # buck6d->(n3_c2zn1@imid)|ZIF8_H
       235     1     5  -0.15320000     5.056618     7.001363    10.391600 # buck6d->(n3_c2zn1@imid)|ZIF8_H
       236     1     5  -0.15320000    10.519325     4.242933    11.281045 # buck6d->(n3_c2zn1@imid)|ZIF8_H
       237     1     6   0.52120000     5.293671     4.531145    18.057895 # buck6d->(zn4_n4@zn4tet)|ZIF8_H
       238     1     6   0.52120000     8.782684    13.419061    16.113618 # buck6d->(zn4_n4@zn4tet)|ZIF8_H
       239     1     1  -0.05190000     3.823541    10.963015     9.953700 # buck6d->(c3_h1n2@imid)|ZIF8_H
       240     1     2   0.11450000     2.990693    10.252111     9.985782 # buck6d->(h1_c1S@imid)|ZIF8_H
       241     1     3  -0.15040000     5.050140    12.738811     9.918668 # buck6d->(c3_c1h1n1@imid)|ZIF8_H
       242     1     4   0.14200000     5.293208    13.773049     9.838279 # buck6d->(h1_c1@imid)|ZIF8_H
       243     1     3  -0.15040000     5.907664    11.636179     9.748671 # buck6d->(c3_c1h1n1@imid)|ZIF8_H
       244     1     4   0.14200000     6.961833    11.613843     9.812466 # buck6d->(h1_c1@imid)|ZIF8_H
       245     1     3  -0.15040000     3.286817     9.977762     3.152143 # buck6d->(c3_c1h1n1@imid)|ZIF8_H
       246     1     4   0.14200000     3.945537     9.202469     3.445490 # buck6d->(h1_c1@imid)|ZIF8_H
       247     1     3  -0.15040000     2.844637    14.272916     7.405398 # buck6d->(c3_c1h1n1@imid)|ZIF8_H
       248     1     4   0.14200000     3.681957    14.286933     8.148630 # buck6d->(h1_c1@imid)|ZIF8_H
       249     1     1  -0.05190000     0.734448    13.773974     6.843595 # buck6d->(c3_h1n2@imid)|ZIF8_H
       250     1     2   0.11450000    15.147643    13.503168     6.936154 # buck6d->(h1_c1S@imid)|ZIF8_H
       251     1     1  -0.05190000    15.354005    12.154222    11.676169 # buck6d->(c3_h1n2@imid)|ZIF8_H
       252     1     2   0.11450000     0.182147    12.883611    12.452405 # buck6d->(h1_c1S@imid)|ZIF8_H
       253     1     3  -0.15040000    14.309089    11.497233     4.893050 # buck6d->(c3_c1h1n1@imid)|ZIF8_H
       254     1     4   0.14200000    14.994184    11.043425     5.594428 # buck6d->(h1_c1@imid)|ZIF8_H
       255     1     1  -0.05190000     1.894574    14.496739     1.040451 # buck6d->(c3_h1n2@imid)|ZIF8_H
       256     1     2   0.11450000     2.785720    13.892586     1.132087 # buck6d->(h1_c1S@imid)|ZIF8_H
       257     1     3  -0.15040000     0.113668     0.215659     1.637839 # buck6d->(c3_c1h1n1@imid)|ZIF8_H
       258     1     4   0.14200000    14.773942     0.596605     2.300866 # buck6d->(h1_c1@imid)|ZIF8_H
       259     1     3  -0.15040000     8.117640     2.923255     6.581593 # buck6d->(c3_c1h1n1@imid)|ZIF8_H
       260     1     4   0.14200000     7.885214     2.161979     5.839467 # buck6d->(h1_c1@imid)|ZIF8_H
       261     1     3  -0.15040000    15.388706    11.038650     9.829429 # buck6d->(c3_c1h1n1@imid)|ZIF8_H
       262     1     4   0.14200000     0.328820    10.907868     8.776994 # buck6d->(h1_c1@imid)|ZIF8_H
       263     1     5  -0.15320000     3.737017    12.251885     9.917931 # buck6d->(n3_c2zn1@imid)|ZIF8_H
       264     1     5  -0.15320000     5.111524    10.479169     9.924568 # buck6d->(n3_c2zn1@imid)|ZIF8_H
       265     1     5  -0.15320000     7.464780     4.148197     6.598371 # buck6d->(n3_c2zn1@imid)|ZIF8_H
       266     1     5  -0.15320000     2.426054     9.993475     2.118883 # buck6d->(n3_c2zn1@imid)|ZIF8_H
       267     1     5  -0.15320000     1.597833    13.926783     7.873721 # buck6d->(n3_c2zn1@imid)|ZIF8_H
       268     1     5  -0.15320000     0.495082    12.128343    10.481393 # buck6d->(n3_c2zn1@imid)|ZIF8_H
       269     1     5  -0.15320000    14.586705    12.544410     3.988118 # buck6d->(n3_c2zn1@imid)|ZIF8_H
       270     1     5  -0.15320000     1.010830    14.690061     2.039416 # buck6d->(n3_c2zn1@imid)|ZIF8_H