LAMMPS data file for mol object with MOF-FF params from www.mofplus.org

      1776 atoms
      2112 bonds
      3744 angles
      6336 dihedrals
      1008 impropers
        14 atom types
        18 bond types
        31 angle types
        47 dihedral types
        12 improper types

    0.000000    50.100700  xlo xhi
    0.000000    50.100700  ylo yhi
    0.000000    50.100700  zlo zhi

Masses

    1    12.0107 # buck6d->(c3_c2h1@carbazol)|DUT160/gaussian->(c3_c2h1@carbazol)|DUT160
    2    12.0107 # buck6d->(c3_c2n1@carbazol)|DUT160/gaussian->(c3_c2n1@carbazol)|DUT160
    3    12.0107 # buck6d->(c3_c3@carbazol)|DUT160/gaussian->(c3_c3@carbazol)|DUT160
    4    12.0107 # buck6d->(c3_c2h1@carbazol)|DUT160/gaussian->(c3_c3@carbazol)|CuPW
    5    12.0107 # buck6d->(c3_c1o2@co2)|CuPW/gaussian->(c3_c1o2@co2)|CuPW
    6    12.0107 # buck6d->(c3_c2n1@ph)|DUT160/gaussian->(c3_c2n1@ph)|DUT160
    7    12.0107 # buck6d->(c3_c2h1@ph)|benzene/gaussian->(c3_c2h1@ph)|benzene
    8    12.0107 # buck6d->(c3_c3@ph)|ph-cc-ph/gaussian->(c3_c3@ph)|ph-cc-ph
    9    12.0107 # buck6d->(c2_c2@ety)|ph-cc-ph/gaussian->(c2_c2@ety)|ph-cc-ph
   10    63.5460 # buck6d->(cu5_cu1o4@cu2)|CuPW/gaussian->(cu5_cu1o4@cu2)|CuPW
   11     1.0079 # buck6d->(h1_c1@carbazol)|DUT160/gaussian->(h1_c1@carbazol)|DUT160
   12     1.0079 # buck6d->(h1_c1@ph)|benzene/gaussian->(h1_c1@ph)|benzene
   13    14.0067 # buck6d->(n3_c3@carbazol)|DUT160/gaussian->(n3_c3@carbazol)|DUT160
   14    15.9994 # buck6d->(o2_c1cu1@co2)|CuPW/gaussian->(o2_c1cu1@co2)|CuPW

Atoms

         1     1     1    0.00000    50.098696     4.645838    40.688782 # buck6d->(c3_c2h1@carbazol)|DUT160
         2     1     1    0.00000    40.688782    50.098696     4.645838 # buck6d->(c3_c2h1@carbazol)|DUT160
         3     1     1    0.00000     4.645838    40.688782    50.098696 # buck6d->(c3_c2h1@carbazol)|DUT160
         4     1     1    0.00000    25.048346     4.645838    34.462268 # buck6d->(c3_c2h1@carbazol)|DUT160
         5     1     1    0.00000    15.638432    50.098696    20.404512 # buck6d->(c3_c2h1@carbazol)|DUT160
         6     1     1    0.00000    29.696188    40.688782    25.052354 # buck6d->(c3_c2h1@carbazol)|DUT160
         7     1     1    0.00000    25.052354    29.696188    40.688782 # buck6d->(c3_c2h1@carbazol)|DUT160
         8     1     1    0.00000    34.462268    25.048346     4.645838 # buck6d->(c3_c2h1@carbazol)|DUT160
         9     1     1    0.00000    20.404512    15.638432    50.098696 # buck6d->(c3_c2h1@carbazol)|DUT160
        10     1     1    0.00000     0.002004    29.696188    34.462268 # buck6d->(c3_c2h1@carbazol)|DUT160
        11     1     1    0.00000     9.411918    25.048346    20.404512 # buck6d->(c3_c2h1@carbazol)|DUT160
        12     1     1    0.00000    45.454862    15.638432    25.052354 # buck6d->(c3_c2h1@carbazol)|DUT160
        13     1     1    0.00000     0.002004    45.454862     9.411918 # buck6d->(c3_c2h1@carbazol)|DUT160
        14     1     1    0.00000     9.411918     0.002004    45.454862 # buck6d->(c3_c2h1@carbazol)|DUT160
        15     1     1    0.00000    45.454862     9.411918     0.002004 # buck6d->(c3_c2h1@carbazol)|DUT160
        16     1     1    0.00000    25.052354    45.454862    15.638432 # buck6d->(c3_c2h1@carbazol)|DUT160
        17     1     1    0.00000    34.462268     0.002004    29.696188 # buck6d->(c3_c2h1@carbazol)|DUT160
        18     1     1    0.00000    20.404512     9.411918    25.048346 # buck6d->(c3_c2h1@carbazol)|DUT160
        19     1     1    0.00000    25.048346    20.404512     9.411918 # buck6d->(c3_c2h1@carbazol)|DUT160
        20     1     1    0.00000    15.638432    25.052354    45.454862 # buck6d->(c3_c2h1@carbazol)|DUT160
        21     1     1    0.00000    29.696188    34.462268     0.002004 # buck6d->(c3_c2h1@carbazol)|DUT160
        22     1     1    0.00000    50.098696    20.404512    15.638432 # buck6d->(c3_c2h1@carbazol)|DUT160
        23     1     1    0.00000    40.688782    25.052354    29.696188 # buck6d->(c3_c2h1@carbazol)|DUT160
        24     1     1    0.00000     4.645838    34.462268    25.048346 # buck6d->(c3_c2h1@carbazol)|DUT160
        25     1     1    0.00000    50.088175    29.681158    15.628913 # buck6d->(c3_c2h1@carbazol)|DUT160
        26     1     1    0.00000    15.628913    50.088175    29.681158 # buck6d->(c3_c2h1@carbazol)|DUT160
        27     1     1    0.00000    29.681158    15.628913    50.088175 # buck6d->(c3_c2h1@carbazol)|DUT160
        28     1     1    0.00000    25.037825    29.681158     9.421437 # buck6d->(c3_c2h1@carbazol)|DUT160
        29     1     1    0.00000    40.679263    50.088175    45.469892 # buck6d->(c3_c2h1@carbazol)|DUT160
        30     1     1    0.00000     4.630808    15.628913    25.062875 # buck6d->(c3_c2h1@carbazol)|DUT160
        31     1     1    0.00000    25.062875     4.630808    15.628913 # buck6d->(c3_c2h1@carbazol)|DUT160
        32     1     1    0.00000     9.421437    25.037825    29.681158 # buck6d->(c3_c2h1@carbazol)|DUT160
        33     1     1    0.00000    45.469892    40.679263    50.088175 # buck6d->(c3_c2h1@carbazol)|DUT160
        34     1     1    0.00000     0.012525     4.630808     9.421437 # buck6d->(c3_c2h1@carbazol)|DUT160
        35     1     1    0.00000    34.471787    25.037825    45.469892 # buck6d->(c3_c2h1@carbazol)|DUT160
        36     1     1    0.00000    20.419542    40.679263    25.062875 # buck6d->(c3_c2h1@carbazol)|DUT160
        37     1     1    0.00000     0.012525    20.419542    34.471787 # buck6d->(c3_c2h1@carbazol)|DUT160
        38     1     1    0.00000    34.471787     0.012525    20.419542 # buck6d->(c3_c2h1@carbazol)|DUT160
        39     1     1    0.00000    20.419542    34.471787     0.012525 # buck6d->(c3_c2h1@carbazol)|DUT160
        40     1     1    0.00000    25.062875    20.419542    40.679263 # buck6d->(c3_c2h1@carbazol)|DUT160
        41     1     1    0.00000     9.421437     0.012525     4.630808 # buck6d->(c3_c2h1@carbazol)|DUT160
        42     1     1    0.00000    45.469892    34.471787    25.037825 # buck6d->(c3_c2h1@carbazol)|DUT160
        43     1     1    0.00000    25.037825    45.469892    34.471787 # buck6d->(c3_c2h1@carbazol)|DUT160
        44     1     1    0.00000    40.679263    25.062875    20.419542 # buck6d->(c3_c2h1@carbazol)|DUT160
        45     1     1    0.00000     4.630808     9.421437     0.012525 # buck6d->(c3_c2h1@carbazol)|DUT160
        46     1     1    0.00000    50.088175    45.469892    40.679263 # buck6d->(c3_c2h1@carbazol)|DUT160
        47     1     1    0.00000    15.628913    25.062875     4.630808 # buck6d->(c3_c2h1@carbazol)|DUT160
        48     1     1    0.00000    29.681158     9.421437    25.037825 # buck6d->(c3_c2h1@carbazol)|DUT160
        49     1     1    0.00000    50.097694     6.047655    40.640686 # buck6d->(c3_c2h1@carbazol)|DUT160
        50     1     1    0.00000    40.640686    50.097694     6.047655 # buck6d->(c3_c2h1@carbazol)|DUT160
        51     1     1    0.00000     6.047655    40.640686    50.097694 # buck6d->(c3_c2h1@carbazol)|DUT160
        52     1     1    0.00000    25.047344     6.047655    34.510364 # buck6d->(c3_c2h1@carbazol)|DUT160
        53     1     1    0.00000    15.590336    50.097694    19.002695 # buck6d->(c3_c2h1@carbazol)|DUT160
        54     1     1    0.00000    31.098005    40.640686    25.053356 # buck6d->(c3_c2h1@carbazol)|DUT160
        55     1     1    0.00000    25.053356    31.098005    40.640686 # buck6d->(c3_c2h1@carbazol)|DUT160
        56     1     1    0.00000    34.510364    25.047344     6.047655 # buck6d->(c3_c2h1@carbazol)|DUT160
        57     1     1    0.00000    19.002695    15.590336    50.097694 # buck6d->(c3_c2h1@carbazol)|DUT160
        58     1     1    0.00000     0.003006    31.098005    34.510364 # buck6d->(c3_c2h1@carbazol)|DUT160
        59     1     1    0.00000     9.460014    25.047344    19.002695 # buck6d->(c3_c2h1@carbazol)|DUT160
        60     1     1    0.00000    44.053045    15.590336    25.053356 # buck6d->(c3_c2h1@carbazol)|DUT160
        61     1     1    0.00000     0.003006    44.053045     9.460014 # buck6d->(c3_c2h1@carbazol)|DUT160
        62     1     1    0.00000     9.460014     0.003006    44.053045 # buck6d->(c3_c2h1@carbazol)|DUT160
        63     1     1    0.00000    44.053045     9.460014     0.003006 # buck6d->(c3_c2h1@carbazol)|DUT160
        64     1     1    0.00000    25.053356    44.053045    15.590336 # buck6d->(c3_c2h1@carbazol)|DUT160
        65     1     1    0.00000    34.510364     0.003006    31.098005 # buck6d->(c3_c2h1@carbazol)|DUT160
        66     1     1    0.00000    19.002695     9.460014    25.047344 # buck6d->(c3_c2h1@carbazol)|DUT160
        67     1     1    0.00000    25.047344    19.002695     9.460014 # buck6d->(c3_c2h1@carbazol)|DUT160
        68     1     1    0.00000    15.590336    25.053356    44.053045 # buck6d->(c3_c2h1@carbazol)|DUT160
        69     1     1    0.00000    31.098005    34.510364     0.003006 # buck6d->(c3_c2h1@carbazol)|DUT160
        70     1     1    0.00000    50.097694    19.002695    15.590336 # buck6d->(c3_c2h1@carbazol)|DUT160
        71     1     1    0.00000    40.640686    25.053356    31.098005 # buck6d->(c3_c2h1@carbazol)|DUT160
        72     1     1    0.00000     6.047655    34.510364    25.047344 # buck6d->(c3_c2h1@carbazol)|DUT160
        73     1     1    0.00000    50.090680    31.082975    15.578312 # buck6d->(c3_c2h1@carbazol)|DUT160
        74     1     1    0.00000    15.578312    50.090680    31.082975 # buck6d->(c3_c2h1@carbazol)|DUT160
        75     1     1    0.00000    31.082975    15.578312    50.090680 # buck6d->(c3_c2h1@carbazol)|DUT160
        76     1     1    0.00000    25.040330    31.082975     9.472038 # buck6d->(c3_c2h1@carbazol)|DUT160
        77     1     1    0.00000    40.628662    50.090680    44.068075 # buck6d->(c3_c2h1@carbazol)|DUT160
        78     1     1    0.00000     6.032625    15.578312    25.060370 # buck6d->(c3_c2h1@carbazol)|DUT160
        79     1     1    0.00000    25.060370     6.032625    15.578312 # buck6d->(c3_c2h1@carbazol)|DUT160
        80     1     1    0.00000     9.472038    25.040330    31.082975 # buck6d->(c3_c2h1@carbazol)|DUT160
        81     1     1    0.00000    44.068075    40.628662    50.090680 # buck6d->(c3_c2h1@carbazol)|DUT160
        82     1     1    0.00000     0.010020     6.032625     9.472038 # buck6d->(c3_c2h1@carbazol)|DUT160
        83     1     1    0.00000    34.522388    25.040330    44.068075 # buck6d->(c3_c2h1@carbazol)|DUT160
        84     1     1    0.00000    19.017725    40.628662    25.060370 # buck6d->(c3_c2h1@carbazol)|DUT160
        85     1     1    0.00000     0.010020    19.017725    34.522388 # buck6d->(c3_c2h1@carbazol)|DUT160
        86     1     1    0.00000    34.522388     0.010020    19.017725 # buck6d->(c3_c2h1@carbazol)|DUT160
        87     1     1    0.00000    19.017725    34.522388     0.010020 # buck6d->(c3_c2h1@carbazol)|DUT160
        88     1     1    0.00000    25.060370    19.017725    40.628662 # buck6d->(c3_c2h1@carbazol)|DUT160
        89     1     1    0.00000     9.472038     0.010020     6.032625 # buck6d->(c3_c2h1@carbazol)|DUT160
        90     1     1    0.00000    44.068075    34.522388    25.040330 # buck6d->(c3_c2h1@carbazol)|DUT160
        91     1     1    0.00000    25.040330    44.068075    34.522388 # buck6d->(c3_c2h1@carbazol)|DUT160
        92     1     1    0.00000    40.628662    25.060370    19.017725 # buck6d->(c3_c2h1@carbazol)|DUT160
        93     1     1    0.00000     6.032625     9.472038     0.010020 # buck6d->(c3_c2h1@carbazol)|DUT160
        94     1     1    0.00000    50.090680    44.068075    40.628662 # buck6d->(c3_c2h1@carbazol)|DUT160
        95     1     1    0.00000    15.578312    25.060370     6.032625 # buck6d->(c3_c2h1@carbazol)|DUT160
        96     1     1    0.00000    31.082975     9.472038    25.040330 # buck6d->(c3_c2h1@carbazol)|DUT160
        97     1     2    0.00000    50.078656     6.747562    41.845107 # buck6d->(c3_c2n1@carbazol)|DUT160
        98     1     2    0.00000    41.845107    50.078656     6.747562 # buck6d->(c3_c2n1@carbazol)|DUT160
        99     1     2    0.00000     6.747562    41.845107    50.078656 # buck6d->(c3_c2n1@carbazol)|DUT160
       100     1     2    0.00000    25.028306     6.747562    33.305943 # buck6d->(c3_c2n1@carbazol)|DUT160
       101     1     2    0.00000    16.794757    50.078656    18.302788 # buck6d->(c3_c2n1@carbazol)|DUT160
       102     1     2    0.00000    31.797912    41.845107    25.072394 # buck6d->(c3_c2n1@carbazol)|DUT160
       103     1     2    0.00000    25.072394    31.797912    41.845107 # buck6d->(c3_c2n1@carbazol)|DUT160
       104     1     2    0.00000    33.305943    25.028306     6.747562 # buck6d->(c3_c2n1@carbazol)|DUT160
       105     1     2    0.00000    18.302788    16.794757    50.078656 # buck6d->(c3_c2n1@carbazol)|DUT160
       106     1     2    0.00000     0.022044    31.797912    33.305943 # buck6d->(c3_c2n1@carbazol)|DUT160
       107     1     2    0.00000     8.255593    25.028306    18.302788 # buck6d->(c3_c2n1@carbazol)|DUT160
       108     1     2    0.00000    43.353138    16.794757    25.072394 # buck6d->(c3_c2n1@carbazol)|DUT160
       109     1     2    0.00000     0.022044    43.353138     8.255593 # buck6d->(c3_c2n1@carbazol)|DUT160
       110     1     2    0.00000     8.255593     0.022044    43.353138 # buck6d->(c3_c2n1@carbazol)|DUT160
       111     1     2    0.00000    43.353138     8.255593     0.022044 # buck6d->(c3_c2n1@carbazol)|DUT160
       112     1     2    0.00000    25.072394    43.353138    16.794757 # buck6d->(c3_c2n1@carbazol)|DUT160
       113     1     2    0.00000    33.305943     0.022044    31.797912 # buck6d->(c3_c2n1@carbazol)|DUT160
       114     1     2    0.00000    18.302788     8.255593    25.028306 # buck6d->(c3_c2n1@carbazol)|DUT160
       115     1     2    0.00000    25.028306    18.302788     8.255593 # buck6d->(c3_c2n1@carbazol)|DUT160
       116     1     2    0.00000    16.794757    25.072394    43.353138 # buck6d->(c3_c2n1@carbazol)|DUT160
       117     1     2    0.00000    31.797912    33.305943     0.022044 # buck6d->(c3_c2n1@carbazol)|DUT160
       118     1     2    0.00000    50.078656    18.302788    16.794757 # buck6d->(c3_c2n1@carbazol)|DUT160
       119     1     2    0.00000    41.845107    25.072394    31.797912 # buck6d->(c3_c2n1@carbazol)|DUT160
       120     1     2    0.00000     6.747562    33.305943    25.028306 # buck6d->(c3_c2n1@carbazol)|DUT160
       121     1     2    0.00000     0.011022    31.785387    16.781730 # buck6d->(c3_c2n1@carbazol)|DUT160
       122     1     2    0.00000    16.781730     0.011022    31.785387 # buck6d->(c3_c2n1@carbazol)|DUT160
       123     1     2    0.00000    31.785387    16.781730     0.011022 # buck6d->(c3_c2n1@carbazol)|DUT160
       124     1     2    0.00000    25.061372    31.785387     8.268620 # buck6d->(c3_c2n1@carbazol)|DUT160
       125     1     2    0.00000    41.832080     0.011022    43.365663 # buck6d->(c3_c2n1@carbazol)|DUT160
       126     1     2    0.00000     6.735037    16.781730    25.039328 # buck6d->(c3_c2n1@carbazol)|DUT160
       127     1     2    0.00000    25.039328     6.735037    16.781730 # buck6d->(c3_c2n1@carbazol)|DUT160
       128     1     2    0.00000     8.268620    25.061372    31.785387 # buck6d->(c3_c2n1@carbazol)|DUT160
       129     1     2    0.00000    43.365663    41.832080     0.011022 # buck6d->(c3_c2n1@carbazol)|DUT160
       130     1     2    0.00000    50.089678     6.735037     8.268620 # buck6d->(c3_c2n1@carbazol)|DUT160
       131     1     2    0.00000    33.318970    25.061372    43.365663 # buck6d->(c3_c2n1@carbazol)|DUT160
       132     1     2    0.00000    18.315313    41.832080    25.039328 # buck6d->(c3_c2n1@carbazol)|DUT160
       133     1     2    0.00000    50.089678    18.315313    33.318970 # buck6d->(c3_c2n1@carbazol)|DUT160
       134     1     2    0.00000    33.318970    50.089678    18.315313 # buck6d->(c3_c2n1@carbazol)|DUT160
       135     1     2    0.00000    18.315313    33.318970    50.089678 # buck6d->(c3_c2n1@carbazol)|DUT160
       136     1     2    0.00000    25.039328    18.315313    41.832080 # buck6d->(c3_c2n1@carbazol)|DUT160
       137     1     2    0.00000     8.268620    50.089678     6.735037 # buck6d->(c3_c2n1@carbazol)|DUT160
       138     1     2    0.00000    43.365663    33.318970    25.061372 # buck6d->(c3_c2n1@carbazol)|DUT160
       139     1     2    0.00000    25.061372    43.365663    33.318970 # buck6d->(c3_c2n1@carbazol)|DUT160
       140     1     2    0.00000    41.832080    25.039328    18.315313 # buck6d->(c3_c2n1@carbazol)|DUT160
       141     1     2    0.00000     6.735037     8.268620    50.089678 # buck6d->(c3_c2n1@carbazol)|DUT160
       142     1     2    0.00000     0.011022    43.365663    41.832080 # buck6d->(c3_c2n1@carbazol)|DUT160
       143     1     2    0.00000    16.781730    25.039328     6.735037 # buck6d->(c3_c2n1@carbazol)|DUT160
       144     1     2    0.00000    31.785387     8.268620    25.061372 # buck6d->(c3_c2n1@carbazol)|DUT160
       145     1     3    0.00000    50.083666     6.083728    43.054037 # buck6d->(c3_c3@carbazol)|DUT160
       146     1     3    0.00000    43.054037    50.083666     6.083728 # buck6d->(c3_c3@carbazol)|DUT160
       147     1     3    0.00000     6.083728    43.054037    50.083666 # buck6d->(c3_c3@carbazol)|DUT160
       148     1     3    0.00000    25.033316     6.083728    32.097013 # buck6d->(c3_c3@carbazol)|DUT160
       149     1     3    0.00000    18.003687    50.083666    18.966622 # buck6d->(c3_c3@carbazol)|DUT160
       150     1     3    0.00000    31.134078    43.054037    25.067384 # buck6d->(c3_c3@carbazol)|DUT160
       151     1     3    0.00000    25.067384    31.134078    43.054037 # buck6d->(c3_c3@carbazol)|DUT160
       152     1     3    0.00000    32.097013    25.033316     6.083728 # buck6d->(c3_c3@carbazol)|DUT160
       153     1     3    0.00000    18.966622    18.003687    50.083666 # buck6d->(c3_c3@carbazol)|DUT160
       154     1     3    0.00000     0.017034    31.134078    32.097013 # buck6d->(c3_c3@carbazol)|DUT160
       155     1     3    0.00000     7.046663    25.033316    18.966622 # buck6d->(c3_c3@carbazol)|DUT160
       156     1     3    0.00000    44.016972    18.003687    25.067384 # buck6d->(c3_c3@carbazol)|DUT160
       157     1     3    0.00000     0.017034    44.016972     7.046663 # buck6d->(c3_c3@carbazol)|DUT160
       158     1     3    0.00000     7.046663     0.017034    44.016972 # buck6d->(c3_c3@carbazol)|DUT160
       159     1     3    0.00000    44.016972     7.046663     0.017034 # buck6d->(c3_c3@carbazol)|DUT160
       160     1     3    0.00000    25.067384    44.016972    18.003687 # buck6d->(c3_c3@carbazol)|DUT160
       161     1     3    0.00000    32.097013     0.017034    31.134078 # buck6d->(c3_c3@carbazol)|DUT160
       162     1     3    0.00000    18.966622     7.046663    25.033316 # buck6d->(c3_c3@carbazol)|DUT160
       163     1     3    0.00000    25.033316    18.966622     7.046663 # buck6d->(c3_c3@carbazol)|DUT160
       164     1     3    0.00000    18.003687    25.067384    44.016972 # buck6d->(c3_c3@carbazol)|DUT160
       165     1     3    0.00000    31.134078    32.097013     0.017034 # buck6d->(c3_c3@carbazol)|DUT160
       166     1     3    0.00000    50.083666    18.966622    18.003687 # buck6d->(c3_c3@carbazol)|DUT160
       167     1     3    0.00000    43.054037    25.067384    31.134078 # buck6d->(c3_c3@carbazol)|DUT160
       168     1     3    0.00000     6.083728    32.097013    25.033316 # buck6d->(c3_c3@carbazol)|DUT160
       169     1     3    0.00000     0.006012    31.123056    17.991662 # buck6d->(c3_c3@carbazol)|DUT160
       170     1     3    0.00000    17.991662     0.006012    31.123056 # buck6d->(c3_c3@carbazol)|DUT160
       171     1     3    0.00000    31.123056    17.991662     0.006012 # buck6d->(c3_c3@carbazol)|DUT160
       172     1     3    0.00000    25.056362    31.123056     7.058688 # buck6d->(c3_c3@carbazol)|DUT160
       173     1     3    0.00000    43.042012     0.006012    44.027994 # buck6d->(c3_c3@carbazol)|DUT160
       174     1     3    0.00000     6.072706    17.991662    25.044338 # buck6d->(c3_c3@carbazol)|DUT160
       175     1     3    0.00000    25.044338     6.072706    17.991662 # buck6d->(c3_c3@carbazol)|DUT160
       176     1     3    0.00000     7.058688    25.056362    31.123056 # buck6d->(c3_c3@carbazol)|DUT160
       177     1     3    0.00000    44.027994    43.042012     0.006012 # buck6d->(c3_c3@carbazol)|DUT160
       178     1     3    0.00000    50.094688     6.072706     7.058688 # buck6d->(c3_c3@carbazol)|DUT160
       179     1     3    0.00000    32.109038    25.056362    44.027994 # buck6d->(c3_c3@carbazol)|DUT160
       180     1     3    0.00000    18.977644    43.042012    25.044338 # buck6d->(c3_c3@carbazol)|DUT160
       181     1     3    0.00000    50.094688    18.977644    32.109038 # buck6d->(c3_c3@carbazol)|DUT160
       182     1     3    0.00000    32.109038    50.094688    18.977644 # buck6d->(c3_c3@carbazol)|DUT160
       183     1     3    0.00000    18.977644    32.109038    50.094688 # buck6d->(c3_c3@carbazol)|DUT160
       184     1     3    0.00000    25.044338    18.977644    43.042012 # buck6d->(c3_c3@carbazol)|DUT160
       185     1     3    0.00000     7.058688    50.094688     6.072706 # buck6d->(c3_c3@carbazol)|DUT160
       186     1     3    0.00000    44.027994    32.109038    25.056362 # buck6d->(c3_c3@carbazol)|DUT160
       187     1     3    0.00000    25.056362    44.027994    32.109038 # buck6d->(c3_c3@carbazol)|DUT160
       188     1     3    0.00000    43.042012    25.044338    18.977644 # buck6d->(c3_c3@carbazol)|DUT160
       189     1     3    0.00000     6.072706     7.058688    50.094688 # buck6d->(c3_c3@carbazol)|DUT160
       190     1     3    0.00000     0.006012    44.027994    43.042012 # buck6d->(c3_c3@carbazol)|DUT160
       191     1     3    0.00000    17.991662    25.044338     6.072706 # buck6d->(c3_c3@carbazol)|DUT160
       192     1     3    0.00000    31.123056     7.058688    25.056362 # buck6d->(c3_c3@carbazol)|DUT160
       193     1     1    0.00000    50.085169     4.692432    43.135701 # buck6d->(c3_c2h1@carbazol)|DUT160
       194     1     1    0.00000    43.135701    50.085169     4.692432 # buck6d->(c3_c2h1@carbazol)|DUT160
       195     1     1    0.00000     4.692432    43.135701    50.085169 # buck6d->(c3_c2h1@carbazol)|DUT160
       196     1     1    0.00000    25.034819     4.692432    32.015349 # buck6d->(c3_c2h1@carbazol)|DUT160
       197     1     1    0.00000    18.085351    50.085169    20.357918 # buck6d->(c3_c2h1@carbazol)|DUT160
       198     1     1    0.00000    29.742782    43.135701    25.065881 # buck6d->(c3_c2h1@carbazol)|DUT160
       199     1     1    0.00000    25.065881    29.742782    43.135701 # buck6d->(c3_c2h1@carbazol)|DUT160
       200     1     1    0.00000    32.015349    25.034819     4.692432 # buck6d->(c3_c2h1@carbazol)|DUT160
       201     1     1    0.00000    20.357918    18.085351    50.085169 # buck6d->(c3_c2h1@carbazol)|DUT160
       202     1     1    0.00000     0.015531    29.742782    32.015349 # buck6d->(c3_c2h1@carbazol)|DUT160
       203     1     1    0.00000     6.964999    25.034819    20.357918 # buck6d->(c3_c2h1@carbazol)|DUT160
       204     1     1    0.00000    45.408268    18.085351    25.065881 # buck6d->(c3_c2h1@carbazol)|DUT160
       205     1     1    0.00000     0.015531    45.408268     6.964999 # buck6d->(c3_c2h1@carbazol)|DUT160
       206     1     1    0.00000     6.964999     0.015531    45.408268 # buck6d->(c3_c2h1@carbazol)|DUT160
       207     1     1    0.00000    45.408268     6.964999     0.015531 # buck6d->(c3_c2h1@carbazol)|DUT160
       208     1     1    0.00000    25.065881    45.408268    18.085351 # buck6d->(c3_c2h1@carbazol)|DUT160
       209     1     1    0.00000    32.015349     0.015531    29.742782 # buck6d->(c3_c2h1@carbazol)|DUT160
       210     1     1    0.00000    20.357918     6.964999    25.034819 # buck6d->(c3_c2h1@carbazol)|DUT160
       211     1     1    0.00000    25.034819    20.357918     6.964999 # buck6d->(c3_c2h1@carbazol)|DUT160
       212     1     1    0.00000    18.085351    25.065881    45.408268 # buck6d->(c3_c2h1@carbazol)|DUT160
       213     1     1    0.00000    29.742782    32.015349     0.015531 # buck6d->(c3_c2h1@carbazol)|DUT160
       214     1     1    0.00000    50.085169    20.357918    18.085351 # buck6d->(c3_c2h1@carbazol)|DUT160
       215     1     1    0.00000    43.135701    25.065881    29.742782 # buck6d->(c3_c2h1@carbazol)|DUT160
       216     1     1    0.00000     4.692432    32.015349    25.034819 # buck6d->(c3_c2h1@carbazol)|DUT160
       217     1     1    0.00000     0.002505    29.732260    18.075832 # buck6d->(c3_c2h1@carbazol)|DUT160
       218     1     1    0.00000    18.075832     0.002505    29.732260 # buck6d->(c3_c2h1@carbazol)|DUT160
       219     1     1    0.00000    29.732260    18.075832     0.002505 # buck6d->(c3_c2h1@carbazol)|DUT160
       220     1     1    0.00000    25.052855    29.732260     6.974518 # buck6d->(c3_c2h1@carbazol)|DUT160
       221     1     1    0.00000    43.126182     0.002505    45.418790 # buck6d->(c3_c2h1@carbazol)|DUT160
       222     1     1    0.00000     4.681910    18.075832    25.047845 # buck6d->(c3_c2h1@carbazol)|DUT160
       223     1     1    0.00000    25.047845     4.681910    18.075832 # buck6d->(c3_c2h1@carbazol)|DUT160
       224     1     1    0.00000     6.974518    25.052855    29.732260 # buck6d->(c3_c2h1@carbazol)|DUT160
       225     1     1    0.00000    45.418790    43.126182     0.002505 # buck6d->(c3_c2h1@carbazol)|DUT160
       226     1     1    0.00000    50.098195     4.681910     6.974518 # buck6d->(c3_c2h1@carbazol)|DUT160
       227     1     1    0.00000    32.024868    25.052855    45.418790 # buck6d->(c3_c2h1@carbazol)|DUT160
       228     1     1    0.00000    20.368440    43.126182    25.047845 # buck6d->(c3_c2h1@carbazol)|DUT160
       229     1     1    0.00000    50.098195    20.368440    32.024868 # buck6d->(c3_c2h1@carbazol)|DUT160
       230     1     1    0.00000    32.024868    50.098195    20.368440 # buck6d->(c3_c2h1@carbazol)|DUT160
       231     1     1    0.00000    20.368440    32.024868    50.098195 # buck6d->(c3_c2h1@carbazol)|DUT160
       232     1     1    0.00000    25.047845    20.368440    43.126182 # buck6d->(c3_c2h1@carbazol)|DUT160
       233     1     1    0.00000     6.974518    50.098195     4.681910 # buck6d->(c3_c2h1@carbazol)|DUT160
       234     1     1    0.00000    45.418790    32.024868    25.052855 # buck6d->(c3_c2h1@carbazol)|DUT160
       235     1     1    0.00000    25.052855    45.418790    32.024868 # buck6d->(c3_c2h1@carbazol)|DUT160
       236     1     1    0.00000    43.126182    25.047845    20.368440 # buck6d->(c3_c2h1@carbazol)|DUT160
       237     1     1    0.00000     4.681910     6.974518    50.098195 # buck6d->(c3_c2h1@carbazol)|DUT160
       238     1     1    0.00000     0.002505    45.418790    43.126182 # buck6d->(c3_c2h1@carbazol)|DUT160
       239     1     1    0.00000    18.075832    25.047845     4.681910 # buck6d->(c3_c2h1@carbazol)|DUT160
       240     1     1    0.00000    29.732260     6.974518    25.052855 # buck6d->(c3_c2h1@carbazol)|DUT160
       241     1     4    0.15000    50.089678     3.954949    41.929276 # buck6d->(c3_c2h1@carbazol)|DUT160
       242     1     4    0.15000    41.929276    50.089678     3.954949 # buck6d->(c3_c2h1@carbazol)|DUT160
       243     1     4    0.15000     3.954949    41.929276    50.089678 # buck6d->(c3_c2h1@carbazol)|DUT160
       244     1     4    0.15000    25.039328     3.954949    33.221774 # buck6d->(c3_c2h1@carbazol)|DUT160
       245     1     4    0.15000    16.878926    50.089678    21.095401 # buck6d->(c3_c2h1@carbazol)|DUT160
       246     1     4    0.15000    29.005299    41.929276    25.061372 # buck6d->(c3_c2h1@carbazol)|DUT160
       247     1     4    0.15000    25.061372    29.005299    41.929276 # buck6d->(c3_c2h1@carbazol)|DUT160
       248     1     4    0.15000    33.221774    25.039328     3.954949 # buck6d->(c3_c2h1@carbazol)|DUT160
       249     1     4    0.15000    21.095401    16.878926    50.089678 # buck6d->(c3_c2h1@carbazol)|DUT160
       250     1     4    0.15000     0.011022    29.005299    33.221774 # buck6d->(c3_c2h1@carbazol)|DUT160
       251     1     4    0.15000     8.171424    25.039328    21.095401 # buck6d->(c3_c2h1@carbazol)|DUT160
       252     1     4    0.15000    46.145751    16.878926    25.061372 # buck6d->(c3_c2h1@carbazol)|DUT160
       253     1     4    0.15000     0.011022    46.145751     8.171424 # buck6d->(c3_c2h1@carbazol)|DUT160
       254     1     4    0.15000     8.171424     0.011022    46.145751 # buck6d->(c3_c2h1@carbazol)|DUT160
       255     1     4    0.15000    46.145751     8.171424     0.011022 # buck6d->(c3_c2h1@carbazol)|DUT160
       256     1     4    0.15000    25.061372    46.145751    16.878926 # buck6d->(c3_c2h1@carbazol)|DUT160
       257     1     4    0.15000    33.221774     0.011022    29.005299 # buck6d->(c3_c2h1@carbazol)|DUT160
       258     1     4    0.15000    21.095401     8.171424    25.039328 # buck6d->(c3_c2h1@carbazol)|DUT160
       259     1     4    0.15000    25.039328    21.095401     8.171424 # buck6d->(c3_c2h1@carbazol)|DUT160
       260     1     4    0.15000    16.878926    25.061372    46.145751 # buck6d->(c3_c2h1@carbazol)|DUT160
       261     1     4    0.15000    29.005299    33.221774     0.011022 # buck6d->(c3_c2h1@carbazol)|DUT160