Created on Fri Feb 09 15:19:14 2018 

        1728 atoms
        2064 bonds
        3696 angles
        6240 dihedrals
        3024 impropers

           6 atom types
           7 bond types
          10 angle types
           9 dihedral types
           3 improper types
           0.000000  46.723700 xlo xhi
           0.000000  46.723700 ylo yhi
           0.000000  46.723700 zlo zhi
           0.000000   0.000000   0.000000 xy xz yz

Masses

    1    12.010700000 # 168
    2    12.010700000 # 2
    3    63.546000000 # 165
    4     1.007940000 # 5
    5    14.006700000 # 40
    6    15.999400000 # 167

Bond Coeffs

    1                       class2        1.278000      585.591600    -1493.258580     2221.222138 # 168 167
    2                       class2        1.485000      360.635220     -919.619811     1367.934469 # 168 2
    3                       class2        1.394000      509.335200    -1298.804760     1931.972080 # 2 2
    4                       class2        1.094000      390.634200     -996.117210     1481.724350 # 2 5
    5                       class2        1.266000      797.814600    -2034.427230     3026.210505 # 2 40
    6                       class2        2.536000       75.465060     -192.435903      286.248406 # 165 165
    7                        morse       50.000000        1.451345        1.914000 # 165 167

Angle Coeffs

    1                       class2      115.098000       79.493057      -63.764634       14.613778 # 167 168 2
    2                       class2      123.490000      111.074462      -89.097370       20.419613 # 167 168 167
    3                       class2      117.711000       57.407656      -46.049029       10.553660 # 2 2 168
    4                       class2      127.050000       53.307109      -42.759813        9.799827 # 2 2 2
    5                       class2      120.350000       36.185527      -29.025892        6.652244 # 5 2 2
    6                       class2      119.000000       47.480016      -38.085663        8.728591 # 2 2 40
    7              cosine/periodic      100.000000               1               4 # 167 165 167
    8                       class2       84.336000       29.351283      -23.543865        5.395856 # 165 165 167
    9                       class2      124.000000       30.933950      -24.813387        5.686809 # 2 40 2
   10                       class2      126.814000       13.740429      -11.021760        2.526001 # 168 167 165

BondBond Coeffs

    1 class2        0.000000        1.485000        1.278000 # 167 168 2
    2 class2        0.000000        1.278000        1.278000 # 167 168 167
    3 class2        0.000000        1.394000        1.485000 # 2 2 168
    4 class2        0.000000        1.394000        1.394000 # 2 2 2
    5 class2        0.000000        1.394000        1.094000 # 5 2 2
    6 class2        0.000000        1.394000        1.266000 # 2 2 40
    7 skip # 167 165 167
    8 class2        0.000000        2.536000        1.914000 # 165 165 167
    9 class2        0.000000        1.266000        1.266000 # 2 40 2
   10 class2        0.000000        1.914000        1.278000 # 168 167 165

BondAngle Coeffs

    1 class2        0.000000        0.000000        1.485000        1.278000 # 167 168 2
    2 class2        0.000000        0.000000        1.278000        1.278000 # 167 168 167
    3 class2        0.000000        0.000000        1.394000        1.485000 # 2 2 168
    4 class2        0.000000        0.000000        1.394000        1.394000 # 2 2 2
    5 class2        0.000000        0.000000        1.394000        1.094000 # 5 2 2
    6 class2        0.000000        0.000000        1.394000        1.266000 # 2 2 40
    7 skip  # 167 165 167
    8 class2        0.000000        0.000000        2.536000        1.914000 # 165 165 167
    9 class2        0.000000        0.000000        1.266000        1.266000 # 2 40 2
   10 class2        0.000000        0.000000        1.914000        1.278000 # 168 167 165

Dihedral Coeffs

    1     4       0.000000     1     0       2.264000     2  -180       0.000000     3     0       0.000000     4  -180 # 167 168 167 165
    2     4       0.000000     1     0       0.000000     2  -180       0.000000     3     0       0.000000     4  -180 # 2 168 167 165
    3     4       0.000000     1     0       0.870500     2  -180       0.000000     3     0       0.000000     4  -180 # 167 168 2 2
    4     4       0.000000     1     0       3.158000     2  -180       0.000000     3     0       0.000000     4  -180 # 2 2 2 5
    5     4       0.000000     1     0       2.189500     2  -180       0.000000     3     0       0.000000     4  -180 # 2 2 2 2
    6     4       0.000000     1     0       7.189500     2  -180       0.000000     3     0       0.000000     4  -180 # 2 2 2 40
    7     4       0.000000     1     0       1.500000     2  -180       0.000000     3     0       0.000000     4  -180 # 40 2 2 5
    8     4       0.000000     1     0       2.986000     2  -180       0.000000     3     0       0.000000     4  -180 # 5 2 2 5
    9     4       0.000000     1     0       0.000000     2  -180       0.000000     3     0       0.304500     4  -180 # 167 165 165 167

Improper Coeffs

    1       13.668602      180.000000  # 2 168 167 167
    2        6.258781      180.000000  # 168 2 2 2
    3        1.366860      180.000000  # 5 2 2 2

Atoms

       1      444        1     0.00000   25.89427    0.00000   15.03569
       2      444        1     0.00000   15.03569   25.89427    0.00000
       3      444        1     0.00000    0.00000   15.03569   25.89427
       4      444        1     0.00000    2.53242    0.00000    8.32616
       5      444        1     0.00000   38.39754   25.89427   23.36185
       6      444        1     0.00000   23.36185   15.03569   44.19128
       7      444        1     0.00000   44.19128   23.36185   15.03569
       8      444        1     0.00000    8.32616    2.53242    0.00000
       9      444        1     0.00000   23.36185   38.39754   25.89427
      10      444        1     0.00000   20.82943   23.36185    8.32616
      11      444        1     0.00000   31.68801    2.53242   23.36185
      12      444        1     0.00000    0.00000   38.39754   44.19128
      13      444        1     0.00000   20.82943    0.00000   31.68801
      14      444        1     0.00000   31.68801   20.82943    0.00000
      15      444        1     0.00000    0.00000   31.68801   20.82943
      16      444        1     0.00000   44.19128    0.00000   38.39754
      17      444        1     0.00000    8.32616   20.82943   23.36185
      18      444        1     0.00000   23.36185   31.68801    2.53242
      19      444        1     0.00000    2.53242   23.36185   31.68801
      20      444        1     0.00000   38.39754   44.19128    0.00000
      21      444        1     0.00000   23.36185    8.32616   20.82943
      22      444        1     0.00000   25.89427   23.36185   38.39754
      23      444        1     0.00000   15.03569   44.19128   23.36185
      24      444        1     0.00000    0.00000    8.32616    2.53242
      25      444        1     0.00000   15.03569    2.53242   23.36185
      26      444        1     0.00000   23.36185   15.03569    2.53242
      27      444        1     0.00000    2.53242   23.36185   15.03569
      28      444        1     0.00000   38.39754    2.53242    0.00000
      29      444        1     0.00000    0.00000   15.03569   20.82943
      30      444        1     0.00000   25.89427   23.36185    8.32616
      31      444        1     0.00000    8.32616   25.89427   23.36185
      32      444        1     0.00000    0.00000   38.39754    2.53242
      33      444        1     0.00000   20.82943    0.00000   15.03569
      34      444        1     0.00000   31.68801   25.89427    0.00000
      35      444        1     0.00000   23.36185   38.39754   20.82943
      36      444        1     0.00000   44.19128    0.00000    8.32616
      37      444        1     0.00000   31.68801   44.19128   23.36185
      38      444        1     0.00000   23.36185   31.68801   44.19128
      39      444        1     0.00000   44.19128   23.36185   31.68801
      40      444        1     0.00000    8.32616   44.19128    0.00000
      41      444        1     0.00000    0.00000   31.68801   25.89427
      42      444        1     0.00000   20.82943   23.36185   38.39754
      43      444        1     0.00000   38.39754   20.82943   23.36185
      44      444        1     0.00000    0.00000    8.32616   44.19128
      45      444        1     0.00000   25.89427    0.00000   31.68801
      46      444        1     0.00000   15.03569   20.82943    0.00000
      47      444        1     0.00000   23.36185    8.32616   25.89427
      48      444        1     0.00000    2.53242    0.00000   38.39754
      49      444        1     0.00000    0.00000    2.53242   38.39754
      50      444        1     0.00000   38.39754    0.00000    2.53242
      51      444        1     0.00000    2.53242   38.39754    0.00000
      52      444        1     0.00000   23.36185    2.53242   31.68801
      53      444        1     0.00000   15.03569    0.00000   20.82943
      54      444        1     0.00000   25.89427   38.39754   23.36185
      55      444        1     0.00000   23.36185   25.89427   38.39754
      56      444        1     0.00000   31.68801   23.36185    2.53242
      57      444        1     0.00000   20.82943   15.03569    0.00000
      58      444        1     0.00000    0.00000   25.89427   31.68801
      59      444        1     0.00000    8.32616   23.36185   20.82943
      60      444        1     0.00000   44.19128   15.03569   23.36185
      61      444        1     0.00000    0.00000   44.19128    8.32616
      62      444        1     0.00000    8.32616    0.00000   44.19128
      63      444        1     0.00000   44.19128    8.32616    0.00000
      64      444        1     0.00000   23.36185   44.19128   15.03569
      65      444        1     0.00000   31.68801    0.00000   25.89427
      66      444        1     0.00000   20.82943    8.32616   23.36185
      67      444        1     0.00000   23.36185   20.82943    8.32616
      68      444        1     0.00000   15.03569   23.36185   44.19128
      69      444        1     0.00000   25.89427   31.68801    0.00000
      70      444        1     0.00000    0.00000   20.82943   15.03569
      71      444        1     0.00000   38.39754   23.36185   25.89427
      72      444        1     0.00000    2.53242   31.68801   23.36185
      73      444        1     0.00000    0.00000   25.89427   15.03569
      74      444        1     0.00000   15.03569    0.00000   25.89427
      75      444        1     0.00000   25.89427   15.03569    0.00000
      76      444        1     0.00000   23.36185   25.89427    8.32616
      77      444        1     0.00000   38.39754    0.00000   44.19128
      78      444        1     0.00000    2.53242   15.03569   23.36185
      79      444        1     0.00000   23.36185    2.53242   15.03569
      80      444        1     0.00000    8.32616   23.36185   25.89427
      81      444        1     0.00000   44.19128   38.39754    0.00000
      82      444        1     0.00000    0.00000    2.53242    8.32616
      83      444        1     0.00000   31.68801   23.36185   44.19128
      84      444        1     0.00000   20.82943   38.39754   23.36185
      85      444        1     0.00000    0.00000   20.82943   31.68801
      86      444        1     0.00000   31.68801    0.00000   20.82943
      87      444        1     0.00000   20.82943   31.68801    0.00000
      88      444        1     0.00000   23.36185   20.82943   38.39754
      89      444        1     0.00000    8.32616    0.00000    2.53242
      90      444        1     0.00000   44.19128   31.68801   23.36185
      91      444        1     0.00000   23.36185   44.19128   31.68801
      92      444        1     0.00000   38.39754   23.36185   20.82943
      93      444        1     0.00000    2.53242    8.32616    0.00000
      94      444        1     0.00000    0.00000   44.19128   38.39754
      95      444        1     0.00000   15.03569   23.36185    2.53242
      96      444        1     0.00000   25.89427    8.32616   23.36185
      97      444        2     0.00000   31.68801    4.01824   23.36185
      98      444        2     0.00000   23.36185   31.68801    4.01824
      99      444        2     0.00000    4.01824   23.36185   31.68801
     100      444        2     0.00000    8.32616    4.01824    0.00000
     101      444        2     0.00000    0.00000   31.68801   19.34361
     102      444        2     0.00000   27.38009   23.36185   38.39754
     103      444        2     0.00000   38.39754   27.38009   23.36185
     104      444        2     0.00000    0.00000    8.32616    4.01824
     105      444        2     0.00000   19.34361    0.00000   31.68801
     106      444        2     0.00000   15.03569   27.38009    0.00000
     107      444        2     0.00000   23.36185    8.32616   19.34361
     108      444        2     0.00000   42.70546    0.00000   38.39754
     109      444        2     0.00000   15.03569   42.70546   23.36185
     110      444        2     0.00000   23.36185   15.03569   42.70546
     111      444        2     0.00000   42.70546   23.36185   15.03569
     112      444        2     0.00000   38.39754   42.70546    0.00000
     113      444        2     0.00000    0.00000   15.03569   27.38009
     114      444        2     0.00000   19.34361   23.36185    8.32616
     115      444        2     0.00000    8.32616   19.34361   23.36185
     116      444        2     0.00000    0.00000   38.39754   42.70546
     117      444        2     0.00000   27.38009    0.00000   15.03569
     118      444        2     0.00000   31.68801   19.34361    0.00000
     119      444        2     0.00000   23.36185   38.39754   27.38009
     120      444        2     0.00000    4.01824    0.00000    8.32616
     121      444        2     0.00000   38.39754    0.00000    4.01824
     122      444        2     0.00000    4.01824   38.39754    0.00000
     123      444        2     0.00000    0.00000    4.01824   38.39754
     124      444        2     0.00000   15.03569    0.00000   19.34361
     125      444        2     0.00000   27.38009   38.39754   23.36185
     126      444        2     0.00000   23.36185    4.01824   31.68801
     127      444        2     0.00000   31.68801   23.36185    4.01824
     128      444        2     0.00000   19.34361   15.03569    0.00000
     129      444        2     0.00000   23.36185   27.38009   38.39754
     130      444        2     0.00000    8.32616   23.36185   19.34361
     131      444        2     0.00000   42.70546   15.03569   23.36185
     132      444        2     0.00000    0.00000   27.38009   31.68801
     133      444        2     0.00000    8.32616    0.00000   42.70546
     134      444        2     0.00000   42.70546    8.32616    0.00000
     135      444        2     0.00000    0.00000   42.70546    8.32616
     136      444        2     0.00000   31.68801    0.00000   27.38009
     137      444        2     0.00000   19.34361    8.32616   23.36185
     138      444        2     0.00000   23.36185   42.70546   15.03569
     139      444        2     0.00000   15.03569   23.36185   42.70546
     140      444        2     0.00000   27.38009   31.68801    0.00000
     141      444        2     0.00000   23.36185   19.34361    8.32616
     142      444        2     0.00000   38.39754   23.36185   27.38009
     143      444        2     0.00000    4.01824   31.68801   23.36185
     144      444        2     0.00000    0.00000   19.34361   15.03569
     145      444        2     0.00000   15.03569   23.36185    4.01824
     146      444        2     0.00000    4.01824   15.03569   23.36185
     147      444        2     0.00000   23.36185    4.01824   15.03569
     148      444        2     0.00000   38.39754   23.36185   19.34361
     149      444        2     0.00000   27.38009   15.03569    0.00000
     150      444        2     0.00000    0.00000    4.01824    8.32616
     151      444        2     0.00000    8.32616    0.00000    4.01824
     152      444        2     0.00000   19.34361   38.39754   23.36185
     153      444        2     0.00000    0.00000   27.38009   15.03569
     154      444        2     0.00000   31.68801    0.00000   19.34361
     155      444        2     0.00000   42.70546   38.39754    0.00000
     156      444        2     0.00000   23.36185   27.38009    8.32616
     157      444        2     0.00000   31.68801   23.36185   42.70546
     158      444        2     0.00000   42.70546   31.68801   23.36185
     159      444        2     0.00000   23.36185   42.70546   31.68801
     160      444        2     0.00000    8.32616   23.36185   27.38009
     161      444        2     0.00000   19.34361   31.68801    0.00000
     162      444        2     0.00000    0.00000   42.70546   38.39754
     163      444        2     0.00000   38.39754    0.00000   42.70546
     164      444        2     0.00000   27.38009    8.32616   23.36185
     165      444        2     0.00000    0.00000   19.34361   31.68801
     166      444        2     0.00000   15.03569    0.00000   27.38009
     167      444        2     0.00000    4.01824    8.32616    0.00000
     168      444        2     0.00000   23.36185   19.34361   38.39754
     169      444        2     0.00000    0.00000   38.39754    4.01824
     170      444        2     0.00000    4.01824    0.00000   38.39754
     171      444        2     0.00000   38.39754    4.01824    0.00000
     172      444        2     0.00000   23.36185   38.39754   19.34361
     173      444        2     0.00000   27.38009    0.00000   31.68801
     174      444        2     0.00000   15.03569    4.01824   23.36185
     175      444        2     0.00000   23.36185   15.03569    4.01824
     176      444        2     0.00000   19.34361   23.36185   38.39754
     177      444        2     0.00000   31.68801   27.38009    0.00000
     178      444        2     0.00000    0.00000   15.03569   19.34361
     179      444        2     0.00000   42.70546   23.36185   31.68801
     180      444        2     0.00000    8.32616   27.38009   23.36185
     181      444        2     0.00000    0.00000    8.32616   42.70546
     182      444        2     0.00000   42.70546    0.00000    8.32616
     183      444        2     0.00000    8.32616   42.70546    0.00000
     184      444        2     0.00000   23.36185    8.32616   27.38009
     185      444        2     0.00000   19.34361    0.00000   15.03569
     186      444        2     0.00000   31.68801   42.70546   23.36185
     187      444        2     0.00000   23.36185   31.68801   42.70546
     188      444        2     0.00000   27.38009   23.36185    8.32616
     189      444        2     0.00000   15.03569   19.34361    0.00000
     190      444        2     0.00000    0.00000   31.68801   27.38009
     191      444        2     0.00000    4.01824   23.36185   15.03569
     192      444        2     0.00000   38.39754   19.34361   23.36185
     193      444        2     0.00000   39.61703    0.00000   42.01395
     194      444        2     0.00000   42.01395   39.61703    0.00000
     195      444        2     0.00000    0.00000   42.01395   39.61703
     196      444        2     0.00000   16.25518    0.00000   28.07160
     197      444        2     0.00000   18.65210   39.61703   23.36185
     198      444        2     0.00000   23.36185   42.01395   30.46852
     199      444        2     0.00000   30.46852   23.36185   42.01395
     200      444        2     0.00000   28.07160   16.25518    0.00000
     201      444        2     0.00000   23.36185   18.65210   39.61703
     202      444        2     0.00000    7.10667   23.36185   28.07160
     203      444        2     0.00000    4.70975   16.25518   23.36185
     204      444        2     0.00000    0.00000   18.65210   30.46852
     205      444        2     0.00000    7.10667    0.00000    4.70975
     206      444        2     0.00000    4.70975    7.10667    0.00000
     207      444        2     0.00000    0.00000    4.70975    7.10667
     208      444        2     0.00000   30.46852    0.00000   18.65210
     209      444        2     0.00000   28.07160    7.10667   23.36185
     210      444        2     0.00000   23.36185    4.70975   16.25518
     211      444        2     0.00000   16.25518   23.36185    4.70975
     212      444        2     0.00000   18.65210   30.46852    0.00000
     213      444        2     0.00000   23.36185   28.07160    7.10667
     214      444        2     0.00000   39.61703   23.36185   18.65210
     215      444        2     0.00000   42.01395   30.46852   23.36185
     216      444        2     0.00000    0.00000   28.07160   16.25518
     217      444        2     0.00000    4.70975    0.00000   39.61703
     218      444        2     0.00000   39.61703    4.70975    0.00000
     219      444        2     0.00000    0.00000   39.61703    4.70975
     220      444        2     0.00000   28.07160    0.00000   30.46852
     221      444        2     0.00000   16.25518    4.70975   23.36185
     222      444        2     0.00000   23.36185   39.61703   18.65210
     223      444        2     0.00000   18.65210   23.36185   39.61703
     224      444        2     0.00000   30.46852   28.07160    0.00000
     225      444        2     0.00000   23.36185   16.25518    4.70975
     226      444        2     0.00000   42.01395   23.36185   30.46852
     227      444        2     0.00000    7.10667   28.07160   23.36185
     228      444        2     0.00000    0.00000   16.25518   18.65210
     229      444        2     0.00000   42.01395    0.00000    7.10667
     230      444        2     0.00000    7.10667   42.01395    0.00000
     231      444        2     0.00000    0.00000    7.10667   42.01395
     232      444        2     0.00000   18.65210    0.00000   16.25518
     233      444        2     0.00000   30.46852   42.01395   23.36185
     234      444        2     0.00000   23.36185    7.10667   28.07160
     235      444        2     0.00000   28.07160   23.36185    7.10667
     236      444        2     0.00000   16.25518   18.65210    0.00000
     237      444        2     0.00000   23.36185   30.46852   42.01395
     238      444        2     0.00000    4.70975   23.36185   16.25518
     239      444        2     0.00000   39.61703   18.65210   23.36185
     240      444        2     0.00000    0.00000   30.46852   28.07160
     241      444        2     0.00000   28.07160   23.36185   39.61703
     242      444        2     0.00000   39.61703   28.07160   23.36185
     243      444        2     0.00000   23.36185   39.61703   28.07160
     244      444        2     0.00000    4.70975   23.36185   30.46852
     245      444        2     0.00000   16.25518   28.07160    0.00000
     246      444        2     0.00000    0.00000   39.61703   42.01395
     247      444        2     0.00000   42.01395    0.00000   39.61703
     248      444        2     0.00000   30.46852    4.70975   23.36185
     249      444        2     0.00000    0.00000   16.25518   28.07160
     250      444        2     0.00000   18.65210    0.00000   30.46852
     251      444        2     0.00000    7.10667    4.70975    0.00000
     252      444        2     0.00000   23.36185   16.25518   42.01395
     253      444        2     0.00000   18.65210   23.36185    7.10667
     254      444        2     0.00000    7.10667   18.65210   23.36185
     255      444        2     0.00000   23.36185    7.10667   18.65210
     256      444        2     0.00000   42.01395   23.36185   16.25518
     257      444        2     0.00000   30.46852   18.65210    0.00000
     258      444        2     0.00000    0.00000    7.10667    4.70975
     259      444        2     0.00000    4.70975    0.00000    7.10667
     260      444        2     0.00000   16.25518   42.01395   23.36185
     261      444        2     0.00000    0.00000   30.46852   18.65210
     262      444        2     0.00000   28.07160    0.00000   16.25518
     263      444        2     0.00000   39.61703   42.01395    0.00000
     264      444        2     0.00000   23.36185   30.46852    4.70975
     265      444        2     0.00000    0.00000    4.70975   39.61703
     266      444        2     0.00000   39.61703    0.00000    4.70975
     267      444        2     0.00000    4.70975   39.61703    0.00000
     268      444        2     0.00000   23.36185    4.70975   30.46852
     269      444        2     0.00000   16.25518    0.00000   18.65210
     270      444        2     0.00000   28.07160   39.61703   23.36185
     271      444        2     0.00000   23.36185   28.07160   39.61703
     272      444        2     0.00000   30.46852   23.36185    4.70975
     273      444        2     0.00000   18.65210   16.25518    0.00000
     274      444        2     0.00000    0.00000   28.07160   30.46852
     275      444        2     0.00000    7.10667   23.36185   18.65210
     276      444        2     0.00000   42.01395   16.25518   23.36185
     277      444        2     0.00000    0.00000   42.01395    7.10667
     278      444        2     0.00000    7.10667    0.00000   42.01395
     279      444        2     0.00000   42.01395    7.10667    0.00000
     280      444        2     0.00000   23.36185   42.01395   16.25518
     281      444        2     0.00000   30.46852    0.00000   28.07160
     282      444        2     0.00000   18.65210    7.10667   23.36185
     283      444        2     0.00000   23.36185   18.65210    7.10667
     284      444        2     0.00000   16.25518   23.36185   42.01395
     285      444        2     0.00000   28.07160   30.46852    0.00000
     286      444        2     0.00000    0.00000   18.65210   16.25518
     287      444        2     0.00000   39.61703   23.36185   28.07160
     288      444        2     0.00000    4.70975   30.46852   23.36185
     289      444        2     0.00000   16.23181   40.61691   23.36185
     290      444        2     0.00000   23.36185   16.23181   40.61691
     291      444        2     0.00000   40.61691   23.36185   16.23181
     292      444        2     0.00000   39.59366   40.61691    0.00000
     293      444        2     0.00000    0.00000   16.23181   29.46864
     294      444        2     0.00000   17.25506   23.36185    7.13004
     295      444        2     0.00000    7.13004   17.25506   23.36185
     296      444        2     0.00000    0.00000   39.59366   40.61691
     297      444        2     0.00000   29.46864    0.00000   16.23181
     298      444        2     0.00000   30.49189   17.25506    0.00000
     299      444        2     0.00000   23.36185   39.59366   29.46864
     300      444        2     0.00000    6.10679    0.00000    7.13004
     301      444        2     0.00000   30.49189    6.10679   23.36185
     302      444        2     0.00000   23.36185   30.49189    6.10679
     303      444        2     0.00000    6.10679   23.36185   30.49189
     304      444        2     0.00000    7.13004    6.10679    0.00000
     305      444        2     0.00000    0.00000   30.49189   17.25506
     306      444        2     0.00000   29.46864   23.36185   39.59366
     307      444        2     0.00000   39.59366   29.46864   23.36185
     308      444        2     0.00000    0.00000    7.13004    6.10679
     309      444        2     0.00000   17.25506    0.00000   30.49189
     310      444        2     0.00000   16.23181   29.46864    0.00000
     311      444        2     0.00000   23.36185    7.13004   17.25506
     312      444        2     0.00000   40.61691    0.00000   39.59366
     313      444        2     0.00000    7.13004   23.36185   17.25506
     314      444        2     0.00000   17.25506    7.13004   23.36185
     315      444        2     0.00000   23.36185   17.25506    7.13004
     316      444        2     0.00000   30.49189   23.36185    6.10679
     317      444        2     0.00000   40.61691    7.13004    0.00000
     318      444        2     0.00000    0.00000   17.25506   16.23181
     319      444        2     0.00000   16.23181    0.00000   17.25506
     320      444        2     0.00000    6.10679   30.49189   23.36185
     321      444        2     0.00000    0.00000   40.61691    7.13004
     322      444        2     0.00000   39.59366    0.00000    6.10679
     323      444        2     0.00000   29.46864   30.49189    0.00000
     324      444        2     0.00000   23.36185   40.61691   16.23181
     325      444        2     0.00000   39.59366   23.36185   29.46864
     326      444        2     0.00000   29.46864   39.59366   23.36185
     327      444        2     0.00000   23.36185   29.46864   39.59366
     328      444        2     0.00000   16.23181   23.36185   40.61691
     329      444        2     0.00000    6.10679   39.59366    0.00000
     330      444        2     0.00000    0.00000   29.46864   30.49189
     331      444        2     0.00000   30.49189    0.00000   29.46864
     332      444        2     0.00000   40.61691   16.23181   23.36185
     333      444        2     0.00000    0.00000    6.10679   39.59366
     334      444        2     0.00000    7.13004    0.00000   40.61691
     335      444        2     0.00000   17.25506   16.23181    0.00000
     336      444        2     0.00000   23.36185    6.10679   30.49189
     337      444        2     0.00000   30.49189   23.36185   40.61691
     338      444        2     0.00000   40.61691   30.49189   23.36185
     339      444        2     0.00000   23.36185   40.61691   30.49189
     340      444        2     0.00000    7.13004   23.36185   29.46864
     341      444        2     0.00000   17.25506   30.49189    0.00000