LAMMPS data file -- atom_style full -- generated by chemfiles
2135 atoms
1270 bonds
635 angles
0 dihedrals
0 impropers
4 atom types
1 bond types
1 angle types
0 dihedral types
0 improper types
0 32 xlo xhi
0 32 ylo yhi
0 32 zlo zhi

# Pair Coeffs
# 1 Cl
# 2 Hw
# 3 Li
# 4 Ow

# Bond Coeffs
# 1 Hw-Ow

# Angle Coeffs
# 1 Hw-Ow-Hw

Masses

1 35.45 # Cl
2 1.008 # Hw
3 6.94 # Li
4 15.999 # Ow

Atoms # full

1 1 2 0 6.698 8.918 12.637 # Hw
2 1 2 0 5.549 7.759 12.603 # Hw
3 1 4 0 6.521 7.94 12.744 # Ow
4 2 2 0 2.969 24.697 0 # Hw
5 2 2 0 3.895 25.048 1.299 # Hw
6 2 4 0 3.892 24.647 0.383 # Ow
7 3 2 0 15.238 27.496 28.398 # Hw
8 3 2 0 13.677 27.972 28.355 # Hw
9 3 4 0 14.294 27.218 28.576 # Ow
10 4 2 0 22.732 0.384 25.337 # Hw
11 4 2 0 22.277 -0.006 26.856 # Hw
12 4 4 0 22.922 0.525 26.309 # Ow
13 5 2 0 5.85 15.896 15.203 # Hw
14 5 2 0 5.656 15.771 16.819 # Hw
15 5 4 0 6.037 15.332 16.007 # Ow
16 6 2 0 6.292 14.337 19.076 # Hw
17 6 2 0 6.489 15.885 19.555 # Hw
18 6 4 0 6.945 15.004 19.435 # Ow
19 7 2 0 13.588 17.956 14.876 # Hw
20 7 2 0 14.173 16.433 14.959 # Hw
21 7 4 0 14.36 17.392 15.17 # Ow
22 8 2 0 7.69 5.109 6.924 # Hw
23 8 2 0 6.33 5.574 6.149 # Hw
24 8 4 0 6.694 5.172 6.988 # Ow
25 9 2 0 21.836 1.731 29.989 # Hw
26 9 2 0 21.678 0.171 29.534 # Hw
27 9 4 0 21.247 0.924 30.03 # Ow
28 10 2 0 13.039 2.509 15.255 # Hw
29 10 2 0 13.202 3.675 16.387 # Hw
30 10 4 0 12.554 3.199 15.792 # Ow
31 11 2 0 19.777 20.207 21.245 # Hw
32 11 2 0 18.228 20.724 21.254 # Hw
33 11 4 0 19.184 21.011 21.301 # Ow
34 12 2 0 -0 30 26.88 # Hw
35 12 2 0 0.165 29.968 25.256 # Hw
36 12 4 0 0.049 29.408 26.076 # Ow
37 13 2 0 10.201 10.066 10.286 # Hw
38 13 2 0 11.166 10.406 9.013 # Hw
39 13 4 0 10.71 9.675 9.519 # Ow
40 14 2 0 26.352 22.255 7.867 # Hw
41 14 2 0 26.787 22.853 9.323 # Hw
42 14 4 0 26.792 23.02 8.338 # Ow
43 15 2 0 19.628 17.362 29.998 # Hw
44 15 2 0 19.644 15.987 29.118 # Hw
45 15 4 0 19.874 16.393 30.002 # Ow
46 16 2 0 5.636 17.183 3.457 # Hw
47 16 2 0 7.235 17.194 3.791 # Hw
48 16 4 0 6.509 17.629 3.258 # Ow
49 17 2 0 0.103 17.273 -0.006 # Hw
50 17 2 0 0.002 18.617 0.917 # Hw
51 17 4 0 0.59 17.856 0.646 # Ow
52 18 2 0 9.527 18.163 2.625 # Hw
53 18 2 0 8.477 18.032 1.381 # Hw
54 18 4 0 9.012 18.67 1.933 # Ow
55 19 2 0 21.956 21.889 10.952 # Hw
56 19 2 0 23.035 20.98 11.775 # Hw
57 19 4 0 22.109 21.008 11.4 # Ow
58 20 2 0 17.445 8.662 13.029 # Hw
59 20 2 0 17.175 8.509 14.632 # Hw
60 20 4 0 17.776 8.248 13.877 # Ow
61 21 2 0 17.461 15.1 27.526 # Hw
62 21 2 0 17.495 16.381 26.513 # Hw
63 21 4 0 17.078 16.006 27.34 # Ow
64 22 2 0 10.341 28.292 18.731 # Hw
65 22 2 0 9.874 27.782 20.21 # Hw
66 22 4 0 9.628 28.355 19.43 # Ow
67 23 2 0 4.498 6.244 17.431 # Hw
68 23 2 0 3.872 4.74 17.314 # Hw
69 23 4 0 4.711 5.28 17.267 # Ow
70 24 2 0 2.07 4.926 20.49 # Hw
71 24 2 0 0.55 5.062 19.91 # Hw
72 24 4 0 1.292 5.543 20.375 # Ow
73 25 2 0 5.802 29.999 16.483 # Hw
74 25 2 0 5.98 28.39 16.264 # Hw
75 25 4 0 6.365 29.289 16.059 # Ow
76 26 2 0 6.829 29.518 19.345 # Hw
77 26 2 0 6.931 27.978 18.811 # Hw
78 26 4 0 6.313 28.748 18.968 # Ow
79 27 2 0 18.858 10.329 1.629 # Hw
80 27 2 0 20.232 11.158 1.93 # Hw
81 27 4 0 19.238 11.164 2.029 # Ow
82 28 2 0 5.156 0 15.538 # Hw
83 28 2 0 6.235 0.596 16.61 # Hw
84 28 4 0 5.328 0.19 16.505 # Ow
85 29 2 0 0.465 22.114 2.776 # Hw
86 29 2 0 0.652 20.492 2.82 # Hw
87 29 4 0 -0.014 21.235 2.767 # Ow
88 30 2 0 18.921 17.538 8.666 # Hw
89 30 2 0 19.153 16.528 7.404 # Hw
90 30 4 0 18.602 17.285 7.752 # Ow
91 31 2 0 15.357 20.015 24.028 # Hw
92 31 2 0 16.562 19.488 23.06 # Hw
93 31 4 0 16.157 20.292 23.496 # Ow
94 32 2 0 6.67 -0.052 5.694 # Hw
95 32 2 0 8.283 -0.003 5.945 # Hw
96 32 4 0 7.556 0.153 5.277 # Ow
97 33 2 0 6.769 13.864 2.698 # Hw
98 33 2 0 6.356 14.607 4.092 # Hw
99 33 4 0 7.019 14 3.657 # Ow
100 34 2 0 8.074 15.687 5.947 # Hw
101 34 2 0 7.767 15.336 7.512 # Hw
102 34 4 0 8.349 15.862 6.893 # Ow
103 35 2 0 19.966 28.943 0 # Hw
104 35 2 0 18.74 30 0.214 # Hw
105 35 4 0 19.728 29.91 0.096 # Ow
106 36 2 0 3.507 1.396 21.624 # Hw
107 36 2 0 1.999 1.555 22.231 # Hw
108 36 4 0 2.556 1.099 21.537 # Ow
109 37 2 0 16.473 27.507 22.407 # Hw
110 37 2 0 16.917 29.058 22.151 # Hw
111 37 4 0 16.765 28.17 21.718 # Ow
112 38 2 0 0.223 12.275 3.723 # Hw
113 38 2 0 1.137 13.599 4.002 # Hw
114 38 4 0 1.115 12.699 3.566 # Ow
115 39 2 0 20.755 23.45 1.572 # Hw
116 39 2 0 20.43 24.259 0.191 # Hw
117 39 4 0 20.065 23.62 0.867 # Ow
118 40 2 0 -0.001 25.447 14.523 # Hw
119 40 2 0 0.394 23.916 14.114 # Hw
120 40 4 0 0.639 24.879 14.005 # Ow
121 41 2 0 22.432 26.06 15.283 # Hw
122 41 2 0 22.134 26.735 16.741 # Hw
123 41 4 0 22.815 26.621 16.018 # Ow
124 42 2 0 16.369 9.107 5.64 # Hw
125 42 2 0 17.217 7.756 5.293 # Hw
126 42 4 0 16.603 8.187 5.953 # Ow
127 43 2 0 17.747 3.574 22.222 # Hw
128 43 2 0 16.131 3.807 22.275 # Hw
129 43 4 0 17.011 4.235 22.072 # Ow
130 44 2 0 4.68 30.001 7.727 # Hw
131 44 2 0 3.483 30.004 8.838 # Hw
132 44 4 0 4.057 29.427 8.259 # Ow
133 45 2 0 13.929 13.105 22.587 # Hw
134 45 2 0 15.108 14.227 22.721 # Hw
135 45 4 0 14.12 14.08 22.706 # Ow
136 46 2 0 3.619 27.646 17.463 # Hw
137 46 2 0 2.936 28.796 18.401 # Hw
138 46 4 0 3.762 28.532 17.904 # Ow
139 47 2 0 23.298 8.874 6.478 # Hw
140 47 2 0 22.798 7.504 7.213 # Hw
141 47 4 0 23.525 7.917 6.665 # Ow
142 48 2 0 19.32 0.108 10.189 # Hw
143 48 2 0 19.235 0.047 8.56 # Hw
144 48 4 0 18.71 -0.019 9.407 # Ow
145 49 2 0 16.709 2.064 20.164 # Hw
146 49 2 0 18.327 2.127 19.959 # Hw
147 49 4 0 17.552 1.526 20.15 # Ow
148 50 2 0 25.876 16.957 4.78 # Hw
149 50 2 0 26.661 18.204 4.077 # Hw
150 50 4 0 26.773 17.362 4.603 # Ow
151 51 2 0 4.114 9.346 2.59 # Hw
152 51 2 0 4.866 10.78 2.804 # Hw
153 51 4 0 3.979 10.331 2.698 # Ow
154 52 2 0 23.355 16.393 15.891 # Hw
155 52 2 0 22.768 17.067 17.257 # Hw
156 52 4 0 22.523 16.649 16.383 # Ow
157 53 2 0 13.047 11.617 0.26 # Hw
158 53 2 0 12.956 13.227 0.515 # Hw
159 53 4 0 12.645 12.474 -0.063 # Ow
160 54 2 0 24.165 19.33 16.103 # Hw
161 54 2 0 25.317 18.23 16.466 # Hw
162 54 4 0 24.981 18.86 15.766 # Ow
163 55 2 0 29.887 11.449 13.411 # Hw
164 55 2 0 29.397 11.81 14.927 # Hw
165 55 4 0 29.102 11.484 14.029 # Ow
166 56 2 0 26.087 26.217 13.441 # Hw
167 56 2 0 27.002 25.25 12.496 # Hw
168 56 4 0 27.019 25.912 13.245 # Ow
169 57 2 0 29.2 10.724 25.982 # Hw
170 57 2 0 29.724 12.104 26.68 # Hw
171 57 4 0 29.998 11.201 26.35 # Ow
172 58 2 0 28.968 2.295 4.092 # Hw
173 58 2 0 28.535 0.723 4.183 # Hw
174 58 4 0 29.262 1.355 3.917 # Ow
175 59 2 0 27.543 9.62 12.68 # Hw
176 59 2 0 27.282 8.636 11.403 # Hw
177 59 4 0 27.634 9.527 11.688 # Ow
178 60 2 0 2.85 18.662 27.204 # Hw
179 60 2 0 3.712 19.5 28.309 # Hw
180 60 4 0 3.71 19.143 27.376 # Ow
181 61 2 0 0.039 20.307 15.014 # Hw
182 61 2 0 0.041 19.035 13.99 # Hw
183 61 4 0 -0.001 20.032 14.053 # Ow
184 62 2 0 1.268 15.026 25.51 # Hw
185 62 2 0 2.142 16.007 26.479 # Hw
186 62 4 0 1.655 15.136 26.426 # Ow
187 63 2 0 18.761 24.26 12.201 # Hw
188 63 2 0 17.735 23.747 11.039 # Hw
189 63 4 0 18.011 23.632 11.993 # Ow
190 64 2 0 7.44 30 5.194 # Hw
191 64 2 0 7.225 28.51 4.562 # Hw
192 64 4 0 7.88 29.252 4.697 # Ow
193 65 2 0 24.443 26.094 24.581 # Hw
194 65 2 0 25.05 24.586 24.419 # Hw
195 65 4 0 24.557 25.322 23.955 # Ow
196 66 2 0 12.237 20.58 24.136 # Hw
197 66 2 0 12.977 21.439 22.961 # Hw
198 66 4 0 12.92 21.286 23.947 # Ow
199 67 2 0 25.697 15.013 28.314 # Hw
200 67 2 0 25.287 14.606 29.842 # Hw
201 67 4 0 25.2 15.304 29.132 # Ow
202 68 2 0 -0.024 11.784 10.177 # Hw
203 68 2 0 0.414 10.336 9.563 # Hw
204 68 4 0 0.751 11.201 9.931 # Ow
205 69 2 0 23.395 5.145 5.903 # Hw
206 69 2 0 24.849 5.321 6.625 # Hw
207 69 4 0 24.38 4.997 5.805 # Ow
208 70 2 0 7.022 1.769 8.595 # Hw
209 70 2 0 7.328 3.325 8.984 # Hw
210 70 4 0 6.61 2.644 8.851 # Ow
211 71 2 0 23.18 18.89 29.84 # Hw
212 71 2 0 21.667 19.328 29.408 # Hw
213 71 4 0 22.206 18.749 30.02 # Ow
214 72 2 0 14.961 21.928 9.573 # Hw
215 72 2 0 14.983 23.145 10.662 # Hw
216 72 4 0 14.517 22.778 9.858 # Ow
217 73 2 0 14.953 3.904 7.441 # Hw
218 73 2 0 15.456 2.962 6.206 # Hw
219 73 4 0 14.849 3.013 6.998 # Ow
220 74 2 0 2.638 28.791 21.221 # Hw
221 74 2 0 3.707 30.001 20.974 # Hw
222 74 4 0 2.757 29.784 21.198 # Ow
223 75 2 0 27.635 8.012 23.932 # Hw
224 75 2 0 26.057 8.295 24.241 # Hw
225 75 4 0 26.985 8.648 24.349 # Ow
226 76 2 0 22.856 27.62 22.706 # Hw
227 76 2 0 23.021 26.285 21.78 # Hw
228 76 4 0 23.246 27.256 21.86 # Ow
229 77 2 0 25.113 10.537 18.975 # Hw
230 77 2 0 24.474 11.613 20.024 # Hw
231 77 4 0 24.669 10.646 19.864 # Ow
232 78 2 0 22.101 10.329 21.018 # Hw
233 78 2 0 21.842 10.015 19.437 # Hw
234 78 4 0 22.152 9.629 20.305 # Ow
235 79 2 0 25.249 20.627 9.816 # Hw
236 79 2 0 24.255 19.642 8.974 # Hw
237 79 4 0 24.345 20.543 9.397 # Ow
238 80 2 0 17.944 6.231 0.197 # Hw
239 80 2 0 16.567 5.377 -0.005 # Hw
240 80 4 0 16.962 6.209 0.383 # Ow
241 81 2 0 16.001 12.789 15.362 # Hw
242 81 2 0 16.852 13.696 14.305 # Hw
243 81 4 0 16.012 13.172 14.439 # Ow
244 82 2 0 17.802 23.551 16.598 # Hw
245 82 2 0 17.77 23.331 14.98 # Hw
246 82 4 0 17.376 23.844 15.742 # Ow
247 83 2 0 30 15.812 15.738 # Hw
248 83 2 0 30 14.317 16.393 # Hw
249 83 4 0 29.427 15.035 16 # Ow
250 84 2 0 -0 14.571 20.904 # Hw
251 84 2 0 -0 16.187 20.664 # Hw
252 84 4 0 0.57 15.366 20.694 # Ow
253 85 2 0 29.986 7.707 27.901 # Hw
254 85 2 0 29.069 6.361 27.788 # Hw
255 85 4 0 30.002 6.708 27.878 # Ow
256 86 2 0 5.708 13.516 7.585 # Hw
257 86 2 0 5.463 11.905 7.69 # Hw
258 86 4 0 5.026 12.802 7.742 # Ow
259 87 2 0 30 8.385 12.671 # Hw
260 87 2 0 30.002 6.882 13.309 # Hw
261 87 4 0 29.425 7.642 13.014 # Ow
262 88 2 0 22.073 17.005 7.189 # Hw
263 88 2 0 21.183 17.883 6.138 # Hw
264 88 4 0 21.542 17.845 7.07 # Ow
265 89 2 0 8.305 18.133 20.644 # Hw
266 89 2 0 7.479 17.24 21.733 # Hw
267 89 4 0 8.383 17.435 21.356 # Ow
268 90 2 0 13.886 19.452 5.498 # Hw
269 90 2 0 14.223 20.245 4.111 # Hw
270 90 4 0 13.969 19.363 4.505 # Ow
271 91 2 0 27.87 19.978 9.302 # Hw
272 91 2 0 28.087 18.36 9.334 # Hw
273 91 4 0 28.551 19.245 9.323 # Ow
274 92 2 0 5.962 30.001 10.283 # Hw
275 92 2 0 7.481 30 9.684 # Hw
276 92 4 0 6.591 29.547 9.651 # Ow
277 93 2 0 4.713 13.726 28.996 # Hw
278 93 2 0 6.05 13.057 29.652 # Hw
279 93 4 0 5.523 13.17 28.811 # Ow
280 94 2 0 7.668 10.682 23.793 # Hw
281 94 2 0 6.731 11.392 24.927 # Hw
282 94 4 0 7.1 11.478 24.002 # Ow
283 95 2 0 15.141 5.892 5.555 # Hw
284 95 2 0 15.692 5.641 4.038 # Hw
285 95 4 0 15.819 5.407 5.002 # Ow
286 96 2 0 5.028 21.258 17.125 # Hw
287 96 2 0 4.745 21.575 18.701 # Hw
288 96 4 0 5.385 21.163 18.054 # Ow
289 97 2 0 22.273 15.009 -0 # Hw
290 97 2 0 23.833 15.158 0.458 # Hw
291 97 4 0 22.995 14.627 0.577 # Ow
292 98 2 0 26.063 5.162 18.989 # Hw
293 98 2 0 26.787 6.606 18.749 # Hw
294 98 4 0 26.109 6.114 19.293 # Ow
295 99 2 0 8.258 25.035 14.824 # Hw
296 99 2 0 9.093 26.433 14.95 # Hw
297 99 4 0 9.135 25.443 15.081 # Ow
298 100 2 0 28.817 1.84 18.719 # Hw
299 100 2 0 28.042 3.252 18.985 # Hw
300 100 4 0 27.996 2.372 18.513 # Ow
301 101 2 0 14.106 7.596 12.262 # Hw
302 101 2 0 14.66 8.477 13.521 # Hw
303 101 4 0 13.937 7.86 13.212 # Ow
304 102 2 0 9.011 13.286 1.215 # Hw
305 102 2 0 10.082 13.47 -0.004 # Hw
306 102 4 0 9.829 12.907 0.782 # Ow
307 103 2 0 17.143 29.62 25.832 # Hw
308 103 2 0 18.052 30 24.529 # Hw
309 103 4 0 17.472 29.299 24.943 # Ow
310 104 2 0 8.758 28.713 28.894 # Hw
311 104 2 0 7.993 27.271 28.948 # Hw
312 104 4 0 8.253 28.077 29.478 # Ow
313 105 2 0 10.122 8.575 24.363 # Hw
314 105 2 0 9.976 9.627 25.605 # Hw
315 105 4 0 9.761 8.703 25.288 # Ow
316 106 2 0 14.61 30 23.314 # Hw
317 106 2 0 14.794 28.672 24.247 # Hw
318 106 4 0 14.136 29.336 23.893 # Ow
319 107 2 0 29.571 22.875 22.762 # Hw
320 107 2 0 29.185 21.289 22.798 # Hw
321 107 4 0 29.932 21.945 22.697 # Ow
322 108 2 0 18.608 15.763 14.761 # Hw
323 108 2 0 20.051 15.804 15.525 # Hw
324 108 4 0 19.521 16.171 14.761 # Ow
325 109 2 0 14.782 12.012 30.03 # Hw
326 109 2 0 13.175 12.275 29.916 # Hw
327 109 4 0 13.887 11.574 29.938 # Ow
328 110 2 0 8.177 5.93 9.784 # Hw
329 110 2 0 6.909 6.957 9.728 # Hw
330 110 4 0 7.905 6.892 9.76 # Ow
331 111 2 0 22.322 30 9.308 # Hw
332 111 2 0 23.955 30 9.286 # Hw
333 111 4 0 23.14 29.423 9.303 # Ow
334 112 2 0 20.003 21.163 4.119 # Hw
335 112 2 0 19.996 20.421 2.665 # Hw
336 112 4 0 20.028 21.305 3.129 # Ow
337 113 2 0 28.62 26.286 3.966 # Hw
338 113 2 0 27.737 27.659 3.91 # Hw
339 113 4 0 28.089 26.939 4.507 # Ow
340 114 2 0 19.941 1.251 27.632 # Hw
341 114 2 0 21.082 2.402 27.432 # Hw
342 114 4 0 20.19 2.199 27.835 # Ow
343 115 2 0 27.436 16.511 23.46 # Hw
344 115 2 0 28.776 15.754 24.005 # Hw
345 115 4 0 27.777 15.763 24.029 # Ow
346 116 2 0 9.416 2.489 6.199 # Hw
347 116 2 0 9.596 1.726 7.631 # Hw
348 116 4 0 9.258 2.554 7.185 # Ow
349 117 2 0 10.637 20.838 2.718 # Hw
350 117 2 0 11.389 20.301 4.065 # Hw
351 117 4 0 10.667 20.898 3.716 # Ow
352 118 2 0 11.672 11.047 2.57 # Hw
353 118 2 0 12.318 12.459 3.075 # Hw
354 118 4 0 11.829 11.636 3.363 # Ow
355 119 2 0 26.687 25.944 26.16 # Hw
356 119 2 0 27.435 26.952 25.116 # Hw
357 119 4 0 27.053 26.867 26.035 # Ow
358 120 2 0 13.403 21.211 18.797 # Hw
359 120 2 0 11.923 20.76 18.274 # Hw
360 120 4 0 12.501 21.539 18.514 # Ow
361 121 2 0 15.003 6.309 16.5 # Hw
362 121 2 0 14.474 5.895 17.988 # Hw
363 121 4 0 14.192 6.149 17.064 # Ow
364 122 2 0 26.696 25.531 22.239 # Hw
365 122 2 0 27.441 26.101 20.903 # Hw
366 122 4 0 26.678 26.239 21.534 # Ow
367 123 2 0 2.157 18.143 19.259 # Hw
368 123 2 0 2.613 19.652 19.685 # Hw
369 123 4 0 2.12 18.835 19.981 # Ow
370 124 2 0 28.472 4.916 11.822 # Hw
371 124 2 0 28.521 5.433 10.274 # Hw
372 124 4 0 28.644 5.702 11.228 # Ow
373 125 2 0 20.451 11.009 29.982 # Hw
374 125 2 0 21 9.471 30.001 # Hw
375 125 4 0 21.264 10.431 29.912 # Ow
376 126 2 0 11.483 0.005 6.611 # Hw
377 126 2 0 12.974 0.651 6.452 # Hw
378 126 4 0 12.049 0.809 6.796 # Ow
379 127 2 0 16.381 29.75 14.797 # Hw
380 127 2 0 15.539 28.846 15.864 # Hw
381 127 4 0 16.014 28.839 14.985 # Ow
382 128 2 0 19.806 18.086 27.351 # Hw
383 128 2 0 20.542 18.13 25.894 # Hw
384 128 4 0 19.966 17.583 26.501 # Ow
385 129 2 0 17.508 20.745 1.543 # Hw
386 129 2 0 16.559 20.028 2.662 # Hw
387 129 4 0 16.6 20.367 1.723 # Ow
388 130 2 0 7.09 5.465 -0.007 # Hw
389 130 2 0 7.744 3.969 -0.002 # Hw
390 130 4 0 7.946 4.947 -0.004 # Ow
391 131 2 0 24.953 12.456 14.437 # Hw
392 131 2 0 25.805 11.078 14.234 # Hw
393 131 4 0 25.842 12.075 14.181 # Ow
394 132 2 0 18.272 23.258 20.006 # Hw
395 132 2 0 19.744 23.142 19.309 # Hw
396 132 4 0 18.759 23.137 19.141 # Ow
397 133 2 0 11.177 30 16.225 # Hw
398 133 2 0 12.683 30 15.595 # Hw
399 133 4 0 11.912 29.425 15.867 # Ow
400 134 2 0 9.425 7.31 19.362 # Hw
401 134 2 0 10.535 8.483 19.117 # Hw
402 134 4 0 10.22 7.583 18.819 # Ow
403 135 2 0 29.744 20.266 3.278 # Hw
404 135 2 0 29.36 18.682 3.179 # Hw
405 135 4 0 28.999 19.6 3.334 # Ow
406 136 2 0 25.775 14.966 15.203 # Hw
407 136 2 0 26.881 13.972 15.879 # Hw
408 136 4 0 26.742 14.856 15.432 # Ow
409 137 2 0 13.703 8.065 19.487 # Hw
410 137 2 0 13.339 7.88 21.068 # Hw
411 137 4 0 13.339 7.435 20.173 # Ow
412 138 2 0 24.388 29.954 6.571 # Hw
413 138 2 0 22.867 30 5.977 # Hw
414 138 4 0 23.83 29.872 5.744 # Ow
415 139 2 0 10.448 9.696 21.849 # Hw
416 139 2 0 9.072 10.457 21.408 # Hw
417 139 4 0 9.452 9.701 21.94 # Ow
418 140 2 0 26.751 8.315 16.503 # Hw
419 140 2 0 27.4 9.739 16.038 # Hw
420 140 4 0 26.668 9.31 16.566 # Ow
421 141 2 0 7.4 7.134 24.233 # Hw
422 141 2 0 6.029 6.246 24.196 # Hw
423 141 4 0 7.028 6.206 24.201 # Ow
424 142 2 0 22.968 3.344 25.667 # Hw
425 142 2 0 21.783 2.871 24.648 # Hw
426 142 4 0 22.218 3.658 25.085 # Ow
427 143 2 0 9.249 2.533 26.978 # Hw
428 143 2 0 8.472 3.762 26.235 # Hw
429 143 4 0 8.566 2.768 26.287 # Ow
430 144 2 0 25.799 6.01 10.36 # Hw
431 144 2 0 26.048 6.243 11.957 # Hw
432 144 4 0 25.861 5.56 11.251 # Ow
433 145 2 0 24.02 24.418 3.88 # Hw
434 145 2 0 22.422 24.194 3.628 # Hw
435 145 4 0 23.332 24.104 3.225 # Ow
436 146 2 0 11.036 16.128 5.933 # Hw
437 146 2 0 10.432 17.621 6.202 # Hw
438 146 4 0 10.515 16.883 5.534 # Ow
439 147 2 0 27.636 8.629 21.151 # Hw
440 147 2 0 26.519 9.703 21.666 # Hw
441 147 4 0 27.498 9.529 21.565 # Ow
442 148 2 0 2.264 11.013 24.244 # Hw
443 148 2 0 0.794 11.397 23.645 # Hw
444 148 4 0 1.776 11.397 23.46 # Ow
445 149 2 0 8.225 7.535 27.246 # Hw
446 149 2 0 7.207 6.272 27.054 # Hw
447 149 4 0 7.266 7.249 27.254 # Ow
448 150 2 0 3.971 22.401 2.042 # Hw
449 150 2 0 3.339 20.961 2.48 # Hw
450 150 4 0 4.184 21.449 2.264 # Ow
451 151 2 0 30.001 14.764 10.341 # Hw
452 151 2 0 30 16.311 10.862 # Hw
453 151 4 0 29.573 15.661 10.235 # Ow
454 152 2 0 20.944 0.01 14.362 # Hw
455 152 2 0 22.577 -0.001 14.386 # Hw
456 152 4 0 21.764 0.581 14.407 # Ow
457 153 2 0 -0 27.314 8.847 # Hw
458 153 2 0 1.294 28.297 9.009 # Hw
459 153 4 0 0.999 27.354 8.858 # Ow
460 154 2 0 21.957 23.064 14.091 # Hw
461 154 2 0 21.42 24.398 13.317 # Hw
462 154 4 0 21.751 23.463 13.197 # Ow
463 155 2 0 15.488 18.212 26.938 # Hw
464 155 2 0 14.951 17.154 25.816 # Hw
465 155 4 0 15.352 18.058 25.959 # Ow
466 156 2 0 8.703 8.217 -0.003 # Hw
467 156 2 0 10.149 8.974 0.002 # Hw
468 156 4 0 9.694 8.085 0.003 # Ow
469 157 2 0 8.446 19.814 25.281 # Hw
470 157 2 0 10.027 19.41 25.332 # Hw
471 157 4 0 9.249 19.586 24.73 # Ow
472 158 2 0 6.019 7.844 3.887 # Hw
473 158 2 0 7.211 8.555 3.028 # Hw
474 158 4 0 6.645 8.623 3.849 # Ow
475 159 2 0 5.657 18.201 24.976 # Hw
476 159 2 0 4.187 17.501 25.101 # Hw
477 159 4 0 4.678 18.323 24.814 # Ow
478 160 2 0 9.737 0.974 3.819 # Hw
479 160 2 0 11.034 -0.015 3.899 # Hw
480 160 4 0 10.04 0.021 3.799 # Ow
481 161 2 0 10.532 2.698 23.467 # Hw
482 161 2 0 10.271 1.086 23.452 # Hw
483 161 4 0 9.832 1.984 23.446 # Ow
484 162 2 0 3.92 8.036 26.311 # Hw
485 162 2 0 4.487 6.674 27.009 # Hw
486 162 4 0 4.293 7.125 26.139 # Ow
487 163 2 0 22.63 6.314 12.726 # Hw
488 163 2 0 23.784 5.236 13.142 # Hw
489 163 4 0 23.36 5.724 12.38 # Ow
490 164 2 0 2.639 0 3.447 # Hw
491 164 2 0 1.143 -0.001 2.792 # Hw
492 164 4 0 1.733 0.423 3.478 # Ow
493 165 2 0 8.851 25.013 11.934 # Hw
494 165 2 0 9.509 23.539 11.688 # Hw
495 165 4 0 8.921 24.08 12.288 # Ow
496 166 2 0 10.796 23.325 14.153 # Hw
497 166 2 0 11.39 24.629 13.371 # Hw
498 166 4 0 11.393 24.123 14.233 # Ow
499 167 2 0 14.41 12.221 4.891 # Hw
500 167 2 0 15.918 11.637 4.664 # Hw
501 167 4 0 14.958 11.39 4.794 # Ow
502 168 2 0 8.684 2.632 11.297 # Hw
503 168 2 0 8.884 3.897 12.311 # Hw
504 168 4 0 8.647 3.628 11.378 # Ow
505 169 2 0 23.101 5.126 8.738 # Hw
506 169 2 0 23.231 3.841 9.738 # Hw
507 169 4 0 23.4 4.822 9.643 # Ow
508 170 2 0 6.452 22.167 30 # Hw
509 170 2 0 8 21.676 29.834 # Hw
510 170 4 0 7.405 22.467 29.975 # Ow
511 171 2 0 18.543 24.078 6.784 # Hw
512 171 2 0 17.367 24.328 5.679 # Hw
513 171 4 0 18.31 24.024 5.812 # Ow
514 172 2 0 20.912 20.582 27.077 # Hw
515 172 2 0 19.878 21.822 27.317 # Hw
516 172 4 0 19.965 20.827 27.286 # Ow
517 173 2 0 17.851 -0 6.181 # Hw
518 173 2 0 18.893 1.223 5.887 # Hw
519 173 4 0 18.769 0.231 5.856 # Ow
520 174 2 0 24.838 17.442 10.518 # Hw
521 174 2 0 25.325 16.141 9.661 # Hw
522 174 4 0 24.547 16.729 9.88 # Ow
523 175 2 0 26.89 2.656 0.003 # Hw
524 175 2 0 26.47 1.689 1.25 # Hw
525 175 4 0 26.307 2.571 0.811 # Ow
526 176 2 0 18.009 7.057 16.811 # Hw
527 176 2 0 19.6 7.068 17.178 # Hw
528 176 4 0 18.773 6.508 17.152 # Ow
529 177 2 0 0.591 6.461 7.136 # Hw
530 177 2 0 1.872 7.471 7.057 # Hw
531 177 4 0 1.586 6.514 7.043 # Ow
532 178 2 0 22.44 14.958 29.98 # Hw
533 178 2 0 21.371 13.724 30 # Hw
534 178 4 0 22.317 13.981 29.805 # Ow
535 179 2 0 28.511 12.409 18.268 # Hw
536 179 2 0 26.881 12.494 18.197 # Hw
537 179 4 0 27.668 11.877 18.186 # Ow
538 180 2 0 25.353 19.446 2.003 # Hw
539 180 2 0 25.459 21.013 1.554 # Hw
540 180 4 0 25.98 20.181 1.743 # Ow
541 181 2 0 25.319 17.673 7.377 # Hw
542 181 2 0 26.311 18.966 7.277 # Hw
543 181 4 0 26.272 17.968 7.306 # Ow
544 182 2 0 28.731 15.789 5.724 # Hw
545 182 2 0 30 14.774 5.885 # Hw
546 182 4 0 29.589 15.483 5.312 # Ow
547 183 2 0 26.304 18.758 21.476 # Hw
548 183 2 0 27.89 18.85 21.098 # Hw
549 183 4 0 27.227 18.873 21.845 # Ow
550 184 2 0 29.999 19.122 25.813 # Hw
551 184 2 0 30.041 20.685 25.34 # Hw
552 184 4 0 29.453 19.887 25.471 # Ow
553 185 2 0 11.567 0.068 0.06 # Hw
554 185 2 0 11.962 1.085 1.276 # Hw
555 185 4 0 11.588 0.185 1.053 # Ow
556 186 2 0 8.042 14.844 13.924 # Hw
557 186 2 0 8.309 13.682 12.808 # Hw
558 186 4 0 8.726 14.43 13.323 # Ow
559 187 2 0 0.011 7.919 4.756 # Hw
560 187 2 0 0.017 8.081 3.131 # Hw
561 187 4 0 0.098 8.568 4 # Ow
562 188 2 0 26.419 17.893 -0 # Hw
563 188 2 0 26.308 16.263 -0.002 # Hw
564 188 4 0 25.919 17.107 0.365 # Ow
565 189 2 0 21.669 23.801 21.407 # Hw
566 189 2 0 21.464 22.443 22.291 # Hw
567 189 4 0 20.997 23.145 21.754 # Ow
568 190 2 0 30.01 18.714 7.055 # Hw
569 190 2 0 28.88 18.578 5.884 # Hw
570 190 4 0 29.789 18.286 6.178 # Ow
571 191 2 0 18.924 17.041 0.099 # Hw
572 191 2 0 18.464 18.608 0.102 # Hw
573 191 4 0 19.248 17.987 0.112 # Ow
574 192 2 0 1.816 0.016 11.321 # Hw
575 192 2 0 2.746 -0.001 9.978 # Hw
576 192 4 0 1.807 0.004 10.321 # Ow
577 193 2 0 6.159 9.153 21.922 # Hw
578 193 2 0 5.361 10.569 22.076 # Hw
579 193 4 0 5.268 9.574 22.092 # Ow
580 194 2 0 7.751 25.74 17.439 # Hw
581 194 2 0 8.774 24.692 18.161 # Hw
582 194 4 0 8.26 25.541 18.277 # Ow
583 195 2 0 0.143 2.449 9.85 # Hw
584 195 2 0 0.29 1.553 8.492 # Hw
585 195 4 0 0.743 2.22 9.083 # Ow
586 196 2 0 24.152 10.709 16.404 # Hw
587 196 2 0 22.675 10.815 15.716 # Hw
588 196 4 0 23.202 10.985 16.548 # Ow
589 197 2 0 24.111 1.811 28.448 # Hw
590 197 2 0 24.58 1.558 29.992 # Hw
591 197 4 0 24.534 2.229 29.252 # Ow
592 198 2 0 20.994 13.142 5.523 # Hw
593 198 2 0 21.055 14.682 6.063 # Hw
594 198 4 0 20.711 14.084 5.34 # Ow
595 199 2 0 5.909 18.896 19.532 # Hw
596 199 2 0 5.204 18.003 18.361 # Hw
597 199 4 0 6.051 18.448 18.65 # Ow
598 200 2 0 24.089 5.852 25.562 # Hw
599 200 2 0 22.729 6.754 25.64 # Hw
600 200 4 0 23.529 6.438 26.149 # Ow
601 201 2 0 5.487 21.644 12.363 # Hw
602 201 2 0 5.124 21.509 13.949 # Hw
603 201 4 0 5.015 21.09 13.049 # Ow
604 202 2 0 21.684 18.348 20.562 # Hw
605 202 2 0 20.569 18.362 19.369 # Hw
606 202 4 0 21.532 18.202 19.584 # Ow
607 203 2 0 28.814 16.301 1.915 # Hw
608 203 2 0 27.386 15.737 2.471 # Hw
609 203 4 0 27.898 16.559 2.222 # Ow
610 204 2 0 27.465 23.887 5.817 # Hw
611 204 2 0 28.125 23.267 4.458 # Hw
612 204 4 0 28.246 23.387 5.443 # Ow
613 205 2 0 19.996 21.26 14.953 # Hw
614 205 2 0 18.474 20.672 15.025 # Hw
615 205 4 0 19.222 21.067 15.557 # Ow
616 206 2 0 4.821 11.261 -0.01 # Hw
617 206 2 0 3.489 10.317 -0.007 # Hw
618 206 4 0 4.489 10.318 -0.003 # Ow
619 207 2 0 6.863 19.653 22.951 # Hw
620 207 2 0 7.244 20.84 21.896 # Hw
621 207 4 0 7.545 20.345 22.711 # Ow
622 208 2 0 5.428 0.422 1.782 # Hw
623 208 2 0 5.316 0.625 3.399 # Hw
624 208 4 0 5.68 0.042 2.673 # Ow
625 209 2 0 23.995 18.041 24.62 # Hw
626 209 2 0 25.192 18.951 23.984 # Hw
627 209 4 0 24.933 18.031 24.275 # Ow
628 210 2 0 19.62 21.338 6.836 # Hw
629 210 2 0 19.067 19.808 6.695 # Hw
630 210 4 0 19.886 20.378 6.752 # Ow
631 211 2 0 11.505 12.7 23.821 # Hw
632 211 2 0 10.139 11.859 23.519 # Hw
633 211 4 0 10.51 12.759 23.744 # Ow
634 212 2 0 14.845 6.686 29.748 # Hw
635 212 2 0 15.069 8.285 29.999 # Hw
636 212 4 0 15.528 7.412 29.835 # Ow
637 213 2 0 29.877 28.256 19.914 # Hw
638 213 2 0 29.977 28.851 18.396 # Hw
639 213 4 0 29.568 28.982 19.299 # Ow
640 214 2 0 13.366 18.9 20.668 # Hw
641 214 2 0 13.574 18.109 19.255 # Hw
642 214 4 0 13.069 18.12 20.117 # Ow
643 215 2 0 11.151 5.327 12.922 # Hw
644 215 2 0 12.67 5.442 13.51 # Hw
645 215 4 0 11.908 5.953 13.114 # Ow
646 216 2 0 8.851 14.745 21.684 # Hw
647 216 2 0 8.073 13.316 21.821 # Hw
648 216 4 0 8.83 13.794 21.375 # Ow
649 217 2 0 22.719 21.461 3.666 # Hw
650 217 2 0 22.716 20.06 2.827 # Hw
651 217 4 0 23.292 20.732 3.291 # Ow
652 218 2 0 -0.012 5.249 2.495 # Hw
653 218 2 0 1.125 5.571 3.623 # Hw
654 218 4 0 0.862 4.953 2.882 # Ow
655 219 2 0 12.528 23.15 20.769 # Hw
656 219 2 0 13.804 23.694 19.908 # Hw
657 219 4 0 12.821 23.791 20.059 # Ow
658 220 2 0 24.539 16.338 22.145 # Hw
659 220 2 0 24.915 15.412 23.437 # Hw
660 220 4 0 24.246 15.566 22.71 # Ow
661 221 2 0 21.11 4.465 30 # Hw
662 221 2 0 20.646 5.407 28.749 # Hw
663 221 4 0 20.837 5.388 29.73 # Ow
664 222 2 0 2.985 15.682 23.426 # Hw
665 222 2 0 2.217 14.343 22.893 # Hw
666 222 4 0 2.493 15.274 22.657 # Ow
667 223 2 0 0.234 24.301 11.348 # Hw
668 223 2 0 0.165 24.716 9.77 # Hw
669 223 4 0 -0.005 23.985 10.43 # Ow
670 224 2 0 17.771 29.075 30 # Hw
671 224 2 0 16.487 30 29.597 # Hw
672 224 4 0 16.772 29.128 29.993 # Ow
673 225 2 0 14.88 12.079 9.339 # Hw
674 225 2 0 13.336 11.886 9.836 # Hw
675 225 4 0 14.134 12.488 9.864 # Ow
676 226 2 0 21.465 11.048 7.42 # Hw
677 226 2 0 21.647 10.07 8.714 # Hw
678 226 4 0 21.516 11.015 8.418 # Ow
679 227 2 0 0.383 23.238 19.153 # Hw
680 227 2 0 0.511 24.634 19.992 # Hw
681 227 4 0 0.149 24.211 19.162 # Ow
682 228 2 0 11.078 0.128 15.957 # Hw
683 228 2 0 12.061 0.009 14.658 # Hw
684 228 4 0 12.022 -0.013 15.656 # Ow
685 229 2 0 9.258 7.928 12.469 # Hw
686 229 2 0 9.442 9.453 13.023 # Hw
687 229 4 0 9.922 8.619 12.755 # Ow
688 230 2 0 29.777 12.029 10.525 # Hw
689 230 2 0 28.431 12.622 11.234 # Hw
690 230 4 0 28.831 11.828 10.777 # Ow
691 231 2 0 4.573 26.629 10.689 # Hw
692 231 2 0 5.846 27.449 11.299 # Hw
693 231 4 0 5.572 26.675 10.731 # Ow
694 232 2 0 10.463 29.337 9.314 # Hw
695 232 2 0 11.95 30 9.442 # Hw
696 232 4 0 11.442 29.142 9.382 # Ow
697 233 2 0 24.417 21.628 29.28 # Hw
698 233 2 0 23.407 21.038 28.14 # Hw
699 233 4 0 24.336 20.998 28.507 # Ow
700 234 2 0 22.595 0.78 17.062 # Hw
701 234 2 0 24.16 0.311 17.056 # Hw
702 234 4 0 23.213 -0.007 17.065 # Ow
703 235 2 0 5.669 12.52 16.395 # Hw
704 235 2 0 5.009 11.047 16.641 # Hw
705 235 4 0 5.859 11.54 16.46 # Ow
706 236 2 0 26.538 23.844 29.286 # Hw
707 236 2 0 27.187 23.786 27.788 # Hw
708 236 4 0 26.521 23.369 28.406 # Ow
709 237 2 0 2.007 6.609 12.587 # Hw
710 237 2 0 1.587 7.327 13.992 # Hw
711 237 4 0 1.412 7.293 13.009 # Ow
712 238 2 0 14.523 6.474 8.909 # Hw
713 238 2 0 13.089 5.707 9.059 # Hw
714 238 4 0 13.581 6.559 9.235 # Ow
715 239 2 0 4.141 9.48 28.641 # Hw
716 239 2 0 4.293 8.587 30 # Hw
717 239 4 0 4.245 8.553 29.002 # Ow
718 240 2 0 24.601 25.659 29.963 # Hw
719 240 2 0 24.936 27.257 30.002 # Hw
720 240 4 0 24.204 26.577 29.988 # Ow
721 241 2 0 19.453 20.617 18.26 # Hw
722 241 2 0 18.269 19.639 17.705 # Hw
723 241 4 0 18.464 20.513 18.148 # Ow
724 242 2 0 19.528 26.488 7.667 # Hw
725 242 2 0 20.511 27.786 7.788 # Hw
726 242 4 0 20.392 26.827 8.04 # Ow
727 243 2 0 21.433 19.422 16.772 # Hw
728 243 2 0 20.63 18.514 15.678 # Hw
729 243 4 0 20.688 18.768 16.643 # Ow
730 244 2 0 17.662 10.528 25.751 # Hw
731 244 2 0 16.311 10.135 24.922 # Hw
732 244 4 0 16.878 10.891 25.247 # Ow
733 245 2 0 22.798 9.526 -0.001 # Hw
734 245 2 0 23.958 8.377 -0 # Hw
735 245 4 0 23.633 9.208 0.449 # Ow
736 246 2 0 2 30.005 13.529 # Hw
737 246 2 0 0.371 29.99 13.644 # Hw
738 246 4 0 1.149 29.77 13.058 # Ow
739 247 2 0 15.772 0.906 15.557 # Hw
740 247 2 0 14.68 -0.002 16.363 # Hw
741 247 4 0 15.195 0.089 15.512 # Ow
742 248 2 0 19.484 16.966 3.614 # Hw
743 248 2 0 20.77 17.788 3.032 # Hw
744 248 4 0 19.965 17.843 3.622 # Ow
745 249 2 0 24.292 2.433 13.49 # Hw
746 249 2 0 24.876 1.871 14.907 # Hw
747 249 4 0 24.762 1.671 13.935 # Ow
748 250 2 0 17.038 1.406 23.759 # Hw
749 250 2 0 15.57 0.886 24.252 # Hw
750 250 4 0 16.14 1.088 23.455 # Ow
751 251 2 0 19.757 21.032 -0.003 # Hw
752 251 2 0 21.372 21.279 0.001 # Hw
753 251 4 0 20.652 20.585 -0 # Ow
754 252 2 0 24.189 5.486 1.355 # Hw
755 252 2 0 23.608 3.959 1.344 # Hw
756 252 4 0 24.438 4.517 1.345 # Ow
757 253 2 0 9.673 4.281 21.39 # Hw
758 253 2 0 8.059 4.031 21.402 # Hw
759 253 4 0 8.953 3.587 21.364 # Ow
760 254 2 0 7.83 22.024 13.751 # Hw
761 254 2 0 7.628 20.413 13.571 # Hw
762 254 4 0 8.272 21.171 13.474 # Ow
763 255 2 0 15.024 3.042 28.183 # Hw
764 255 2 0 15.789 4.202 29.041 # Hw
765 255 4 0 14.918 3.93 28.631 # Ow
766 256 2 0 15.934 10.725 19.788 # Hw
767 256 2 0 15.201 9.902 20.993 # Hw
768 256 4 0 15.809 9.824 20.204 # Ow
769 257 2 0 20.937 14.682 9.858 # Hw
770 257 2 0 19.348 15.024 9.698 # Hw
771 257 4 0 20.26 15.417 9.819 # Ow
772 258 2 0 14.226 -0.005 8.81 # Hw
773 258 2 0 13.255 -0.013 10.123 # Hw
774 258 4 0 13.277 0.014 9.124 # Ow
775 259 2 0 16.177 27.753 7.282 # Hw
776 259 2 0 17.434 27.572 6.255 # Hw
777 259 4 0 16.624 27.13 6.639 # Ow
778 260 2 0 3.624 8.815 5.244 # Hw
779 260 2 0 4.077 10.081 6.171 # Hw
780 260 4 0 4.263 9.58 5.326 # Ow
781 261 2 0 17.839 11.135 14.161 # Hw
782 261 2 0 19.444 10.936 14.384 # Hw
783 261 4 0 18.709 11.608 14.298 # Ow
784 262 2 0 2.484 29.374 23.903 # Hw
785 262 2 0 3.879 29.9 24.571 # Hw
786 262 4 0 2.885 30.004 24.569 # Ow
787 263 2 0 5.464 24.312 23.825 # Hw
788 263 2 0 6.202 22.942 23.329 # Hw
789 263 4 0 5.326 23.351 23.584 # Ow
790 264 2 0 5.465 11.532 19.309 # Hw
791 264 2 0 6.648 10.429 19.536 # Hw
792 264 4 0 5.675 10.555 19.344 # Ow
793 265 2 0 17.699 6.349 20.454 # Hw
794 265 2 0 16.758 5.462 19.457 # Hw
795 265 4 0 17.113 6.377 19.643 # Ow
796 266 2 0 22.538 6.302 16.693 # Hw
797 266 2 0 22.052 5.579 15.311 # Hw
798 266 4 0 21.934 6.379 15.899 # Ow
799 267 2 0 13.423 18.193 23.323 # Hw
800 267 2 0 12.242 17.316 22.614 # Hw
801 267 4 0 13.075 17.269 23.164 # Ow
802 268 2 0 19.385 15.932 24.381 # Hw
803 268 2 0 19.689 14.377 24.775 # Hw
804 268 4 0 19.988 15.323 24.896 # Ow
805 269 2 0 19.555 27.025 26.713 # Hw
806 269 2 0 18.46 27.65 27.751 # Hw
807 269 4 0 18.668 27.483 26.788 # Ow
808 270 2 0 0.856 10.061 13.659 # Hw
809 270 2 0 1.518 11.081 12.569 # Hw
810 270 4 0 0.742 10.48 12.758 # Ow
811 271 2 0 4.039 22.205 28.682 # Hw
812 271 2 0 3.881 23.156 30 # Hw
813 271 4 0 3.566 22.999 29.065 # Ow
814 272 2 0 22.969 18.523 27.124 # Hw
815 272 2 0 22.358 17.159 27.783 # Hw
816 272 4 0 23.16 17.567 27.349 # Ow
817 273 2 0 5.743 5.129 2.681 # Hw
818 273 2 0 6.805 4.383 3.672 # Hw
819 273 4 0 6.589 5.239 3.202 # Ow
820 274 2 0 17.924 7.64 9.99 # Hw
821 274 2 0 16.55 8.28 9.385 # Hw
822 274 4 0 17.075 8.115 10.219 # Ow