LAMMPS data file -- atom_style full -- generated by chemfiles
2051 atoms
1102 bonds
551 angles
0 dihedrals
0 impropers
4 atom types
1 bond types
1 angle types
0 dihedral types
0 improper types
0 32 xlo xhi
0 32 ylo yhi
0 32 zlo zhi

# Pair Coeffs
# 1 Cl
# 2 Hw
# 3 Li
# 4 Ow

# Bond Coeffs
# 1 Hw-Ow

# Angle Coeffs
# 1 Hw-Ow-Hw

Masses

1 35.45 # Cl
2 1.008 # Hw
3 6.94 # Li
4 15.999 # Ow

Atoms # full

1 1 2 0 6.28 7.687 13.586 # Hw
2 1 2 0 6.209 6.069 13.791 # Hw
3 1 4 0 6.754 6.89 13.96 # Ow
4 2 2 0 1.903 25.752 2.091 # Hw
5 2 2 0 2.469 25.101 3.477 # Hw
6 2 4 0 2.706 25.361 2.542 # Ow
7 3 2 0 15.726 27.191 28.277 # Hw
8 3 2 0 14.152 27.624 28.25 # Hw
9 3 4 0 14.786 26.86 28.361 # Ow
10 4 2 0 23.405 0.02 26.157 # Hw
11 4 2 0 22.012 -0 27.009 # Hw
12 4 4 0 22.968 0.293 27.014 # Ow
13 5 2 0 5.339 16.743 14.882 # Hw
14 5 2 0 5.121 16.314 16.443 # Hw
15 5 4 0 5.645 16.131 15.612 # Ow
16 6 2 0 7.18 14.329 19.509 # Hw
17 6 2 0 7.316 15.91 19.894 # Hw
18 6 4 0 7.812 15.047 19.801 # Ow
19 7 2 0 13.323 19.374 15.835 # Hw
20 7 2 0 13.158 17.75 15.88 # Hw
21 7 4 0 13.812 18.502 15.801 # Ow
22 8 2 0 7.74 5.813 7.014 # Hw
23 8 2 0 6.191 6.086 6.576 # Hw
24 8 4 0 6.785 5.74 7.301 # Ow
25 9 2 0 21.052 2.968 30.007 # Hw
26 9 2 0 21.572 1.691 29.132 # Hw
27 9 4 0 20.946 1.986 29.854 # Ow
28 10 2 0 13.085 2.567 14.831 # Hw
29 10 2 0 14.444 3.471 14.795 # Hw
30 10 4 0 13.445 3.5 14.807 # Ow
31 11 2 0 19.92 19.968 21.95 # Hw
32 11 2 0 18.367 19.466 21.88 # Hw
33 11 4 0 18.964 20.258 22.007 # Ow
34 12 2 0 -0.002 30.001 26.581 # Hw
35 12 2 0 0.24 29.999 24.966 # Hw
36 12 4 0 0.034 29.429 25.761 # Ow
37 13 2 0 10.601 9.074 10.266 # Hw
38 13 2 0 10.74 10.262 9.154 # Hw
39 13 4 0 11.088 9.371 9.445 # Ow
40 14 2 0 28.146 23.279 8.169 # Hw
41 14 2 0 26.678 23.613 8.802 # Hw
42 14 4 0 27.552 24.005 8.517 # Ow
43 15 2 0 18.581 18.044 29.676 # Hw
44 15 2 0 19.047 16.551 29.205 # Hw
45 15 4 0 18.957 17.17 29.985 # Ow
46 16 2 0 5.473 18.496 2.683 # Hw
47 16 2 0 6.728 17.451 2.704 # Hw
48 16 4 0 6.47 18.416 2.674 # Ow
49 17 2 0 -0.036 18.966 -0.038 # Hw
50 17 2 0 0.494 18.989 1.506 # Hw
51 17 4 0 0.594 18.546 0.616 # Ow
52 18 2 0 9.643 17.53 3.152 # Hw
53 18 2 0 9.14 18.625 2.051 # Hw
54 18 4 0 9.683 18.491 2.879 # Ow
55 19 2 0 22.044 21.896 9.265 # Hw
56 19 2 0 21.482 21.104 10.579 # Hw
57 19 4 0 21.235 21.489 9.69 # Ow
58 20 2 0 18.061 8.188 12.956 # Hw
59 20 2 0 17.285 6.757 12.826 # Hw
60 20 4 0 18.18 7.198 12.885 # Ow
61 21 2 0 16.991 15.214 27.961 # Hw
62 21 2 0 16.933 16.547 27.019 # Hw
63 21 4 0 16.657 16.155 27.895 # Ow
64 22 2 0 8.708 27.567 20.856 # Hw
65 22 2 0 9.846 27.77 19.703 # Hw
66 22 4 0 9.145 27.153 20.058 # Ow
67 23 2 0 3.734 5.607 17.373 # Hw
68 23 2 0 3.738 4.066 16.833 # Hw
69 23 4 0 4.227 4.938 16.818 # Ow
70 24 2 0 0 4.826 20.461 # Hw
71 24 2 0 0.073 6.457 20.405 # Hw
72 24 4 0 0.602 5.621 20.543 # Ow
73 25 2 0 7.624 29.999 14.917 # Hw
74 25 2 0 6.012 29.812 15.092 # Hw
75 25 4 0 6.861 29.361 14.82 # Ow
76 26 2 0 8.277 29.981 18.516 # Hw
77 26 2 0 7.454 29.022 17.483 # Hw
78 26 4 0 7.472 29.918 17.925 # Ow
79 27 2 0 19.421 9.512 1.447 # Hw
80 27 2 0 20.629 10.58 1.708 # Hw
81 27 4 0 19.748 10.246 2.042 # Ow
82 28 2 0 4.745 -0 15.37 # Hw
83 28 2 0 6.045 0.201 16.337 # Hw
84 28 4 0 5.061 0.028 16.318 # Ow
85 29 2 0 -0.05 20.803 4.344 # Hw
86 29 2 0 1.215 19.823 4.018 # Hw
87 29 4 0 0.255 19.851 4.294 # Ow
88 30 2 0 19.07 17.453 8.017 # Hw
89 30 2 0 19.483 15.958 7.506 # Hw
90 30 4 0 18.815 16.696 7.416 # Ow
91 31 2 0 15.641 19.875 23.785 # Hw
92 31 2 0 16.97 20.824 23.82 # Hw
93 31 4 0 15.971 20.82 23.798 # Ow
94 32 2 0 7.336 -0.016 5.418 # Hw
95 32 2 0 8.942 -0.015 5.716 # Hw
96 32 4 0 8.238 0.19 5.037 # Ow
97 33 2 0 6.38 14.056 2.052 # Hw
98 33 2 0 7.017 14.798 3.36 # Hw
99 33 4 0 7.008 13.954 2.824 # Ow
100 34 2 0 8.252 14.084 7.39 # Hw
101 34 2 0 8.646 14.529 8.911 # Hw
102 34 4 0 9.001 14.362 7.992 # Ow
103 35 2 0 20.865 28.136 -0 # Hw
104 35 2 0 19.915 28.846 1.123 # Hw
105 35 4 0 20.69 28.981 0.506 # Ow
106 36 2 0 2.865 0.894 21.279 # Hw
107 36 2 0 1.31 0.92 21.779 # Hw
108 36 4 0 1.95 0.519 21.124 # Ow
109 37 2 0 16.92 27.108 23.362 # Hw
110 37 2 0 17.168 28.299 22.273 # Hw
111 37 4 0 17.012 27.319 22.389 # Ow
112 38 2 0 -0 12.158 4.191 # Hw
113 38 2 0 0.762 13.351 5.005 # Hw
114 38 4 0 0.816 12.736 4.219 # Ow
115 39 2 0 20.248 23.65 1.963 # Hw
116 39 2 0 19.751 24.409 0.605 # Hw
117 39 4 0 19.478 23.789 1.339 # Ow
118 40 2 0 -0.008 28.927 14.5 # Hw
119 40 2 0 -0.012 27.4 13.922 # Hw
120 40 4 0 0.488 28.265 13.939 # Ow
121 41 2 0 23.155 26.815 16.543 # Hw
122 41 2 0 22.027 26.901 17.72 # Hw
123 41 4 0 22.829 27.347 17.325 # Ow
124 42 2 0 15.989 9.121 5.317 # Hw
125 42 2 0 16.767 7.685 5.352 # Hw
126 42 4 0 15.891 8.143 5.502 # Ow
127 43 2 0 16.884 3.609 22.832 # Hw
128 43 2 0 15.373 3.016 23.013 # Hw
129 43 4 0 15.909 3.826 22.778 # Ow
130 44 2 0 4.477 30.001 7.781 # Hw
131 44 2 0 3.649 29.992 9.189 # Hw
132 44 4 0 3.978 29.428 8.432 # Ow
133 45 2 0 14.269 13.158 22.079 # Hw
134 45 2 0 15.13 14.316 22.844 # Hw
135 45 4 0 14.209 13.985 22.639 # Ow
136 46 2 0 4.026 27.023 17.133 # Hw
137 46 2 0 4.213 28.553 17.673 # Hw
138 46 4 0 4.69 27.746 17.325 # Ow
139 47 2 0 22.518 8.495 6.194 # Hw
140 47 2 0 22.799 7.558 7.502 # Hw
141 47 4 0 23.075 7.749 6.561 # Ow
142 48 2 0 19.746 -0 10.175 # Hw
143 48 2 0 20.418 0.042 8.687 # Hw
144 48 4 0 19.557 0.055 9.194 # Ow
145 49 2 0 17.742 1.998 20.784 # Hw
146 49 2 0 16.413 1.231 20.226 # Hw
147 49 4 0 16.888 2.109 20.276 # Ow
148 50 2 0 26.022 17.163 4.165 # Hw
149 50 2 0 26.856 18.26 3.287 # Hw
150 50 4 0 26.935 17.481 3.909 # Ow
151 51 2 0 3.487 10.43 2.377 # Hw
152 51 2 0 5.106 10.641 2.37 # Hw
153 51 4 0 4.222 11.108 2.373 # Ow
154 52 2 0 24.075 17.797 15.464 # Hw
155 52 2 0 22.676 17.142 15.994 # Hw
156 52 4 0 23.28 17.25 15.204 # Ow
157 53 2 0 12.526 11.825 0.096 # Hw
158 53 2 0 11.452 13.055 0.111 # Hw
159 53 4 0 11.573 12.08 -0.07 # Ow
160 54 2 0 24.018 20.636 17.897 # Hw
161 54 2 0 24.862 19.26 17.654 # Hw
162 54 4 0 24.47 20.066 17.211 # Ow
163 55 2 0 30.018 13.537 13.274 # Hw
164 55 2 0 28.907 12.849 14.254 # Hw
165 55 4 0 29.047 13.326 13.387 # Ow
166 56 2 0 25.616 25.677 14.375 # Hw
167 56 2 0 25.851 24.136 13.888 # Hw
168 56 4 0 26.301 24.964 14.221 # Ow
169 57 2 0 29.145 10.544 25.365 # Hw
170 57 2 0 30.002 11.591 26.28 # Hw
171 57 4 0 30.006 10.686 25.855 # Ow
172 58 2 0 29.83 3.057 4.133 # Hw
173 58 2 0 28.954 1.687 4.285 # Hw
174 58 4 0 29.853 2.06 4.057 # Ow
175 59 2 0 27.65 9.234 11.932 # Hw
176 59 2 0 27.635 8.246 10.632 # Hw
177 59 4 0 27.861 9.163 10.956 # Ow
178 60 2 0 2.888 19.438 28.045 # Hw
179 60 2 0 4.289 19.148 28.832 # Hw
180 60 4 0 3.872 19.29 27.935 # Ow
181 61 2 0 -0 20.552 13.728 # Hw
182 61 2 0 -0.007 18.971 13.317 # Hw
183 61 4 0 0.031 19.906 12.965 # Ow
184 62 2 0 0.495 14.606 25.081 # Hw
185 62 2 0 1.783 15.297 25.807 # Hw
186 62 4 0 1.084 14.588 25.889 # Ow
187 63 2 0 18.222 24.496 9.745 # Hw
188 63 2 0 16.645 24.18 9.463 # Hw
189 63 4 0 17.515 23.789 9.76 # Ow
190 64 2 0 7.427 30 5.181 # Hw
191 64 2 0 7.501 28.52 4.495 # Hw
192 64 4 0 8.007 29.363 4.673 # Ow
193 65 2 0 24.338 25.467 24.807 # Hw
194 65 2 0 24.345 24.135 23.862 # Hw
195 65 4 0 24.055 25.089 23.925 # Ow
196 66 2 0 12.668 20.066 23.523 # Hw
197 66 2 0 13.38 21.493 23.171 # Hw
198 66 4 0 12.998 20.93 23.904 # Ow
199 67 2 0 26.511 15.337 28.406 # Hw
200 67 2 0 26.548 15.071 30.017 # Hw
201 67 4 0 26.53 15.773 29.306 # Ow
202 68 2 0 -0 11.703 9.502 # Hw
203 68 2 0 1.567 12.127 9.674 # Hw
204 68 4 0 0.648 12.464 9.474 # Ow
205 69 2 0 23.266 5.191 5.498 # Hw
206 69 2 0 24.774 5.705 5.857 # Hw
207 69 4 0 24.241 5.035 5.341 # Ow
208 70 2 0 5.721 1.879 8.932 # Hw
209 70 2 0 6.029 3.478 9.052 # Hw
210 70 4 0 5.309 2.787 9.01 # Ow
211 71 2 0 23.18 18.89 29.768 # Hw
212 71 2 0 21.634 19.302 29.441 # Hw
213 71 4 0 22.222 18.719 30 # Ow
214 72 2 0 14.854 22.018 9.811 # Hw
215 72 2 0 15.206 22.666 11.269 # Hw
216 72 4 0 14.575 22.694 10.494 # Ow
217 73 2 0 15.466 4.835 7.938 # Hw
218 73 2 0 15.725 3.26 8.283 # Hw
219 73 4 0 15.471 4.148 8.665 # Ow
220 74 2 0 0.35 29.186 22.003 # Hw
221 74 2 0 1.733 29.741 21.337 # Hw
222 74 4 0 0.893 30.003 21.81 # Ow
223 75 2 0 27.68 8.404 22.288 # Hw
224 75 2 0 27.426 9.222 23.678 # Hw
225 75 4 0 28.098 8.709 23.144 # Ow
226 76 2 0 22.983 27.744 24.034 # Hw
227 76 2 0 24.133 27.632 22.881 # Hw
228 76 4 0 23.474 28.242 23.319 # Ow
229 77 2 0 25.366 13.018 17.689 # Hw
230 77 2 0 23.861 12.6 18.164 # Hw
231 77 4 0 24.778 12.258 17.966 # Ow
232 78 2 0 22.415 11.127 19.99 # Hw
233 78 2 0 21.242 10.235 19.287 # Hw
234 78 4 0 22.193 10.236 19.594 # Ow
235 79 2 0 24.823 18.917 10.036 # Hw
236 79 2 0 23.825 17.957 9.171 # Hw
237 79 4 0 23.906 18.832 9.648 # Ow
238 80 2 0 17.606 5.518 0.089 # Hw
239 80 2 0 16.04 5.063 -0.001 # Hw
240 80 4 0 16.701 5.618 0.503 # Ow
241 81 2 0 16.794 13.727 17.63 # Hw
242 81 2 0 17.516 14.086 16.21 # Hw
243 81 4 0 16.638 13.972 16.673 # Ow
244 82 2 0 18.231 23.536 16.016 # Hw
245 82 2 0 17.722 24.257 14.642 # Hw
246 82 4 0 17.552 24.156 15.622 # Ow
247 83 2 0 30.001 16.57 15.516 # Hw
248 83 2 0 30.016 14.942 15.638 # Hw
249 83 4 0 29.432 15.749 15.561 # Ow
250 84 2 0 -0.002 13.89 21.38 # Hw
251 84 2 0 -0.002 15.519 21.274 # Hw
252 84 4 0 0.573 14.702 21.285 # Ow
253 85 2 0 29.862 7.747 27.959 # Hw
254 85 2 0 29.077 6.344 27.674 # Hw
255 85 4 0 29.959 6.753 27.905 # Ow
256 86 2 0 6.295 12.153 7.398 # Hw
257 86 2 0 7.724 11.386 7.211 # Hw
258 86 4 0 6.771 11.278 7.489 # Ow
259 87 2 0 30 7.818 12.039 # Hw
260 87 2 0 29.997 6.304 12.652 # Hw
261 87 4 0 29.424 7.083 12.396 # Ow
262 88 2 0 21.541 17.651 6.827 # Hw
263 88 2 0 21.325 17.373 5.233 # Hw
264 88 4 0 21.242 18.052 5.961 # Ow
265 89 2 0 8.502 18.305 20.574 # Hw
266 89 2 0 7.863 17.671 21.937 # Hw
267 89 4 0 8.707 17.815 21.422 # Ow
268 90 2 0 13.741 19.441 5.615 # Hw
269 90 2 0 13.909 19.982 4.084 # Hw
270 90 4 0 13.548 19.245 4.654 # Ow
271 91 2 0 27.436 20.887 9.323 # Hw
272 91 2 0 28.154 19.653 10.117 # Hw
273 91 4 0 28.262 20.597 9.806 # Ow
274 92 2 0 6.21 30 10.327 # Hw
275 92 2 0 7.629 30.001 9.518 # Hw
276 92 4 0 6.667 29.73 9.479 # Ow
277 93 2 0 4.766 11.704 28.651 # Hw
278 93 2 0 6.227 11.994 29.32 # Hw
279 93 4 0 5.732 11.446 28.647 # Ow
280 94 2 0 8.001 12.536 23.651 # Hw
281 94 2 0 9.064 12.829 24.856 # Hw
282 94 4 0 8.446 13.25 24.193 # Ow
283 95 2 0 14.785 5.586 5.378 # Hw
284 95 2 0 16.007 5.196 4.369 # Hw
285 95 4 0 15.509 4.922 5.191 # Ow
286 96 2 0 5.757 22.58 17.09 # Hw
287 96 2 0 5.541 21.698 18.447 # Hw
288 96 4 0 6.143 21.859 17.666 # Ow
289 97 2 0 21.732 14.846 0 # Hw
290 97 2 0 23.272 15.39 0 # Hw
291 97 4 0 22.643 14.719 0.391 # Ow
292 98 2 0 25.878 4.913 17.917 # Hw
293 98 2 0 25.29 6.408 18.21 # Hw
294 98 4 0 25.123 5.429 18.323 # Ow
295 99 2 0 7.986 25.227 14.968 # Hw
296 99 2 0 9.045 26.462 15.109 # Hw
297 99 4 0 8.929 25.473 15.19 # Ow
298 100 2 0 27.527 2.833 18.74 # Hw
299 100 2 0 28.834 3.277 19.611 # Hw
300 100 4 0 28.079 3.608 19.046 # Ow
301 101 2 0 12.93 8.037 11.304 # Hw
302 101 2 0 12.553 7.836 12.88 # Hw
303 101 4 0 12.312 7.581 11.945 # Ow
304 102 2 0 8.305 13.767 0.111 # Hw
305 102 2 0 8.833 12.221 0.104 # Hw
306 102 4 0 8.039 12.812 0.247 # Ow
307 103 2 0 16.835 28.673 26.243 # Hw
308 103 2 0 17.225 30.002 25.379 # Hw
309 103 4 0 17.082 29.014 25.336 # Ow
310 104 2 0 9.06 29 27.925 # Hw
311 104 2 0 7.773 28.031 28.192 # Hw
312 104 4 0 8.418 28.667 28.615 # Ow
313 105 2 0 10.21 9.611 24.504 # Hw
314 105 2 0 10.743 10.488 25.774 # Hw
315 105 4 0 10.253 9.661 25.502 # Ow
316 106 2 0 13.403 29.423 24.588 # Hw
317 106 2 0 14.398 28.187 24.974 # Hw
318 106 4 0 13.444 28.481 24.922 # Ow
319 107 2 0 29.804 22.364 22.893 # Hw
320 107 2 0 29.236 20.839 23.025 # Hw
321 107 4 0 30.02 21.397 22.757 # Ow
322 108 2 0 18.683 16.156 14.826 # Hw
323 108 2 0 20.151 15.792 15.44 # Hw
324 108 4 0 19.649 16.413 14.84 # Ow
325 109 2 0 14.363 13.129 29.96 # Hw
326 109 2 0 12.768 12.779 30.002 # Hw
327 109 4 0 13.689 12.39 29.989 # Ow
328 110 2 0 7.667 6.167 11.05 # Hw
329 110 2 0 7.806 7.77 10.771 # Hw
330 110 4 0 8.307 6.933 10.99 # Ow
331 111 2 0 22.73 30 9.302 # Hw
332 111 2 0 24.362 30 9.329 # Hw
333 111 4 0 23.547 29.423 9.308 # Ow
334 112 2 0 19.494 21.959 4.595 # Hw
335 112 2 0 20.009 20.454 4.228 # Hw
336 112 4 0 20 21.408 3.931 # Ow
337 113 2 0 28.304 27.006 4.045 # Hw
338 113 2 0 27.299 28.286 4.183 # Hw
339 113 4 0 27.776 27.566 4.685 # Ow
340 114 2 0 19.155 1.336 27.871 # Hw
341 114 2 0 19.219 2.966 27.954 # Hw
342 114 4 0 18.632 2.165 28.069 # Ow
343 115 2 0 28.295 17.066 23.659 # Hw
344 115 2 0 29.882 17.435 23.771 # Hw
345 115 4 0 29.184 16.758 24 # Ow
346 116 2 0 8.997 2.21 7.331 # Hw
347 116 2 0 8.364 1.178 8.426 # Hw
348 116 4 0 8.316 2.105 8.056 # Ow
349 117 2 0 9.567 21.305 2.497 # Hw
350 117 2 0 10.74 20.934 3.571 # Hw
351 117 4 0 9.79 21.229 3.469 # Ow
352 118 2 0 10.98 11.817 2.602 # Hw
353 118 2 0 12.341 12.716 2.69 # Hw
354 118 4 0 11.58 12.335 3.213 # Ow
355 119 2 0 26.783 25.057 25.996 # Hw
356 119 2 0 26.811 26.689 26.062 # Hw
357 119 4 0 26.606 25.855 26.573 # Ow
358 120 2 0 10.752 20.682 18.792 # Hw
359 120 2 0 10.823 19.407 17.773 # Hw
360 120 4 0 10.289 20.208 18.042 # Ow
361 121 2 0 14.14 6.305 15.154 # Hw
362 121 2 0 13.043 6.338 16.363 # Hw
363 121 4 0 13.173 6.431 15.377 # Ow
364 122 2 0 26.639 25.269 21.974 # Hw
365 122 2 0 27.626 26.564 21.848 # Hw
366 122 4 0 26.674 26.266 21.917 # Ow
367 123 2 0 2.412 17.19 18.867 # Hw
368 123 2 0 1.887 17.987 20.193 # Hw
369 123 4 0 1.956 17.092 19.752 # Ow
370 124 2 0 28.366 4.137 10.615 # Hw
371 124 2 0 28.935 5.592 10.138 # Hw
372 124 4 0 28.35 5.121 10.797 # Ow
373 125 2 0 21.074 10.792 29.926 # Hw
374 125 2 0 21.463 9.208 30.001 # Hw
375 125 4 0 21.742 10.101 29.65 # Ow
376 126 2 0 11.272 0.196 7.159 # Hw
377 126 2 0 12.86 -0.002 6.838 # Hw
378 126 4 0 12.184 0.589 7.277 # Ow
379 127 2 0 16.974 29.247 15.246 # Hw
380 127 2 0 16.281 28.665 16.606 # Hw
381 127 4 0 16.392 28.526 15.622 # Ow
382 128 2 0 19.491 18.798 27.193 # Hw
383 128 2 0 20.03 18.653 25.658 # Hw
384 128 4 0 19.407 18.277 26.343 # Ow
385 129 2 0 16.078 20.913 0.316 # Hw
386 129 2 0 15.726 21.066 1.903 # Hw
387 129 4 0 15.345 20.893 0.996 # Ow
388 130 2 0 7.556 6.296 -0.005 # Hw
389 130 2 0 7.502 4.666 0.073 # Hw
390 130 4 0 8.106 5.462 0.039 # Ow
391 131 2 0 25.553 10.637 14.588 # Hw
392 131 2 0 25.667 9.064 14.165 # Hw
393 131 4 0 26.082 9.968 14.066 # Ow
394 132 2 0 20.322 23.476 20.119 # Hw
395 132 2 0 18.869 23.424 19.376 # Hw
396 132 4 0 19.551 24.023 19.794 # Ow
397 133 2 0 10.067 29.999 16.18 # Hw
398 133 2 0 11.319 30 15.132 # Hw
399 133 4 0 10.618 29.434 15.565 # Ow
400 134 2 0 9.546 9.732 18.592 # Hw
401 134 2 0 10.795 8.684 18.664 # Hw
402 134 4 0 9.8 8.77 18.686 # Ow
403 135 2 0 29.999 20.326 2.82 # Hw
404 135 2 0 29.505 18.774 2.705 # Hw
405 135 4 0 29.214 19.711 2.894 # Ow
406 136 2 0 25.552 14.28 15.253 # Hw
407 136 2 0 27.042 14.433 15.903 # Hw
408 136 4 0 26.377 14.844 15.28 # Ow
409 137 2 0 14.164 8.666 19.537 # Hw
410 137 2 0 13.508 7.896 20.819 # Hw
411 137 4 0 13.827 7.788 19.878 # Ow
412 138 2 0 24.356 30 6.579 # Hw
413 138 2 0 22.914 30 5.814 # Hw
414 138 4 0 23.905 29.974 5.687 # Ow
415 139 2 0 11.463 9.699 21.159 # Hw
416 139 2 0 10.118 10.624 21.127 # Hw
417 139 4 0 10.481 9.718 21.345 # Ow
418 140 2 0 26.636 9.296 16.728 # Hw
419 140 2 0 26.94 10.882 16.968 # Hw
420 140 4 0 26.335 10.123 17.203 # Ow
421 141 2 0 6.824 5.95 24.047 # Hw
422 141 2 0 5.91 7.265 24.365 # Hw
423 141 4 0 5.999 6.279 24.506 # Ow
424 142 2 0 22.504 3.625 27.418 # Hw
425 142 2 0 22.659 3.432 25.804 # Hw
426 142 4 0 22.629 4.1 26.546 # Ow
427 143 2 0 10.192 2.316 27.321 # Hw
428 143 2 0 9.73 3.833 26.932 # Hw
429 143 4 0 9.533 2.862 26.803 # Ow
430 144 2 0 25.118 6.77 10.797 # Hw
431 144 2 0 25.931 6.779 12.214 # Hw
432 144 4 0 25.663 6.219 11.43 # Ow
433 145 2 0 22.315 26.559 2.276 # Hw
434 145 2 0 20.698 26.339 2.318 # Hw
435 145 4 0 21.532 26.164 1.796 # Ow
436 146 2 0 10.175 16.036 6.152 # Hw
437 146 2 0 8.785 16.892 6.135 # Hw
438 146 4 0 9.383 16.297 5.6 # Ow
439 147 2 0 28.453 12.272 22.129 # Hw
440 147 2 0 27.227 11.242 21.806 # Hw
441 147 4 0 27.494 12.058 22.318 # Ow
442 148 2 0 1.257 11.189 24.706 # Hw
443 148 2 0 -0.002 12.066 24.149 # Hw
444 148 4 0 0.968 11.859 24.023 # Ow
445 149 2 0 6.658 6.563 27.4 # Hw
446 149 2 0 7.42 5.304 26.692 # Hw
447 149 4 0 6.566 5.61 27.112 # Ow
448 150 2 0 4.413 21.944 2.844 # Hw
449 150 2 0 3.811 20.597 3.544 # Hw
450 150 4 0 4.641 21.043 3.212 # Ow
451 151 2 0 30.001 14.77 10.819 # Hw
452 151 2 0 30 16.319 11.337 # Hw
453 151 4 0 29.507 15.639 10.794 # Ow
454 152 2 0 20.798 -0.01 13.67 # Hw
455 152 2 0 22.424 -0.033 13.819 # Hw
456 152 4 0 21.591 0.471 14.043 # Ow
457 153 2 0 -0.01 27.787 8.65 # Hw
458 153 2 0 1.621 27.708 8.682 # Hw
459 153 4 0 0.779 27.172 8.634 # Ow
460 154 2 0 23.777 22.261 13.318 # Hw
461 154 2 0 22.856 23.608 13.258 # Hw
462 154 4 0 23.289 22.891 12.713 # Ow
463 155 2 0 14.465 18.789 27.688 # Hw
464 155 2 0 14.052 17.376 26.981 # Hw
465 155 4 0 14.377 18.306 26.816 # Ow
466 156 2 0 9.233 8.475 -0.006 # Hw
467 156 2 0 10.438 9.576 0.002 # Hw
468 156 4 0 10.225 8.6 0.006 # Ow
469 157 2 0 8.85 20.367 25.378 # Hw
470 157 2 0 10.442 20.095 25.136 # Hw
471 157 4 0 9.549 20.166 24.692 # Ow
472 158 2 0 6.152 8.099 3.382 # Hw
473 158 2 0 7.534 8.397 2.566 # Hw
474 158 4 0 6.942 8.707 3.309 # Ow
475 159 2 0 4.349 17.505 25.464 # Hw
476 159 2 0 2.752 17.838 25.395 # Hw
477 159 4 0 3.67 18.221 25.299 # Ow
478 160 2 0 10.835 0.89 3.941 # Hw
479 160 2 0 12.185 -0.008 4.134 # Hw
480 160 4 0 11.214 -0.035 3.899 # Ow
481 161 2 0 11.089 3.613 24.404 # Hw
482 161 2 0 9.681 2.881 24.018 # Hw
483 161 4 0 10.144 3.762 24.111 # Ow
484 162 2 0 3.517 7.812 26.538 # Hw
485 162 2 0 3.92 6.358 27.161 # Hw
486 162 4 0 4.117 7.019 26.438 # Ow
487 163 2 0 22.816 5.919 13.616 # Hw
488 163 2 0 24.072 4.935 13.266 # Hw
489 163 4 0 23.419 5.592 12.888 # Ow
490 164 2 0 2.822 -0.005 3.31 # Hw
491 164 2 0 1.373 -0.004 2.557 # Hw
492 164 4 0 1.885 0.344 3.341 # Ow
493 165 2 0 9.683 25.652 11.128 # Hw
494 165 2 0 8.891 24.476 11.938 # Hw
495 165 4 0 9.073 25.458 11.897 # Ow
496 166 2 0 10.97 23.953 14.147 # Hw
497 166 2 0 11.523 25.064 13.086 # Hw
498 166 4 0 11.713 24.591 13.945 # Ow
499 167 2 0 16.578 12.777 3.663 # Hw
500 167 2 0 16.485 11.153 3.523 # Hw
501 167 4 0 15.957 11.993 3.643 # Ow
502 168 2 0 7.634 2.007 10.944 # Hw
503 168 2 0 8.382 3.157 11.832 # Hw
504 168 4 0 7.59 2.957 11.255 # Ow
505 169 2 0 22.559 4.908 8.198 # Hw
506 169 2 0 22.698 3.89 9.467 # Hw
507 169 4 0 22.806 4.836 9.165 # Ow
508 170 2 0 6.957 22.538 30.004 # Hw
509 170 2 0 8.469 22.289 29.442 # Hw
510 170 4 0 7.889 22.9 29.979 # Ow
511 171 2 0 17.772 24.419 6.615 # Hw
512 171 2 0 17.37 24.246 5.042 # Hw
513 171 4 0 17.996 23.949 5.761 # Ow
514 172 2 0 20.595 21.284 26.744 # Hw
515 172 2 0 19.844 22.603 27.347 # Hw
516 172 4 0 19.801 21.608 27.258 # Ow
517 173 2 0 16.523 -0.042 6.406 # Hw
518 173 2 0 17.198 1.289 7.067 # Hw
519 173 4 0 17.242 0.292 7.015 # Ow
520 174 2 0 24.97 15.733 10.313 # Hw
521 174 2 0 26.193 15.076 9.454 # Hw
522 174 4 0 25.2 15.138 9.543 # Ow
523 175 2 0 27.045 2.211 0 # Hw
524 175 2 0 26.747 0.967 1.015 # Hw
525 175 4 0 26.443 1.873 0.724 # Ow
526 176 2 0 18.239 6.425 16.64 # Hw
527 176 2 0 19.594 5.542 16.865 # Hw
528 176 4 0 18.597 5.506 16.806 # Ow
529 177 2 0 -0.004 7.382 9.215 # Hw
530 177 2 0 1.372 8.255 9.116 # Hw
531 177 4 0 0.988 7.333 9.096 # Ow
532 178 2 0 21.695 15.351 29.97 # Hw
533 178 2 0 20.431 14.318 30.016 # Hw
534 178 4 0 21.384 14.429 29.737 # Ow
535 179 2 0 29.14 12.171 19.472 # Hw
536 179 2 0 27.526 12.291 19.256 # Hw
537 179 4 0 28.311 11.673 19.22 # Ow
538 180 2 0 26.978 20.242 1.384 # Hw
539 180 2 0 25.417 20.692 1.543 # Hw
540 180 4 0 26.362 21.015 1.536 # Ow
541 181 2 0 26.255 16.749 7.272 # Hw
542 181 2 0 25.949 18.296 6.848 # Hw
543 181 4 0 26.624 17.56 6.818 # Ow
544 182 2 0 28.437 14.309 7.984 # Hw
545 182 2 0 30.002 13.852 8.066 # Hw
546 182 4 0 29.359 14.488 7.642 # Ow
547 183 2 0 26.971 18.488 21.071 # Hw
548 183 2 0 28.489 19.089 21.041 # Hw
549 183 4 0 27.689 18.921 21.616 # Ow
550 184 2 0 29.95 19.369 25.817 # Hw
551 184 2 0 30 20.994 25.659 # Hw
552 184 4 0 29.399 20.198 25.712 # Ow
553 185 2 0 11.398 -0.002 0.179 # Hw
554 185 2 0 11.593 1.157 1.313 # Hw
555 185 4 0 11.243 0.237 1.138 # Ow
556 186 2 0 7.995 15.593 14.294 # Hw
557 186 2 0 7.427 14.125 13.857 # Hw
558 186 4 0 8.252 14.666 14.018 # Ow
559 187 2 0 -0.001 7.668 4.188 # Hw
560 187 2 0 0.025 8.063 2.603 # Hw
561 187 4 0 0.117 8.416 3.534 # Ow
562 188 2 0 25.785 18.132 0.085 # Hw
563 188 2 0 26.663 16.759 -0.001 # Hw
564 188 4 0 25.863 17.191 0.413 # Ow
565 189 2 0 22.953 22.474 22.177 # Hw
566 189 2 0 21.344 22.282 22.374 # Hw
567 189 4 0 22.069 22.94 22.175 # Ow
568 190 2 0 30.001 17.507 6.104 # Hw
569 190 2 0 28.987 18.588 5.418 # Hw
570 190 4 0 29.528 17.763 5.26 # Ow
571 191 2 0 19.962 18.32 0.002 # Hw
572 191 2 0 18.452 18.94 0.002 # Hw
573 191 4 0 19.426 19.164 0.003 # Ow
574 192 2 0 1.434 -0.001 11.039 # Hw
575 192 2 0 2.759 0.001 10.085 # Hw
576 192 4 0 1.76 -0.004 10.094 # Ow
577 193 2 0 7.459 7.459 21.726 # Hw
578 193 2 0 6.096 8.357 21.671 # Hw
579 193 4 0 6.461 7.427 21.675 # Ow
580 194 2 0 7.651 26.279 17.486 # Hw
581 194 2 0 7.997 24.693 17.666 # Hw
582 194 4 0 8.016 25.588 18.111 # Ow
583 195 2 0 -0.014 2.204 9.664 # Hw
584 195 2 0 -0.009 1.422 8.23 # Hw
585 195 4 0 0.488 2.068 8.809 # Ow
586 196 2 0 23.034 9.856 15.366 # Hw
587 196 2 0 22.751 11.35 15.962 # Hw
588 196 4 0 23.26 10.501 16.097 # Ow
589 197 2 0 24.897 2.308 26.939 # Hw
590 197 2 0 26.256 2.241 27.842 # Hw
591 197 4 0 25.669 2.836 27.293 # Ow
592 198 2 0 21.617 14.474 5.617 # Hw
593 198 2 0 20.118 14.834 5.078 # Hw
594 198 4 0 20.979 14.379 4.853 # Ow
595 199 2 0 7.082 19.382 18.485 # Hw
596 199 2 0 5.839 18.406 18.073 # Hw
597 199 4 0 6.824 18.553 17.989 # Ow
598 200 2 0 24.338 6.899 23.333 # Hw
599 200 2 0 23.458 6.76 24.701 # Hw
600 200 4 0 24.308 7.111 24.309 # Ow
601 201 2 0 4.615 20.822 11.565 # Hw
602 201 2 0 3.954 21.734 12.748 # Hw
603 201 4 0 3.828 20.925 12.174 # Ow
604 202 2 0 22.624 18.758 20.607 # Hw
605 202 2 0 22.687 18.306 19.039 # Hw
606 202 4 0 23.159 18.808 19.763 # Ow
607 203 2 0 28.99 15.809 1.324 # Hw
608 203 2 0 28.444 14.427 2.001 # Hw
609 203 4 0 28.221 15.379 1.796 # Ow
610 204 2 0 27.735 24.723 5.865 # Hw
611 204 2 0 28.184 23.731 4.649 # Hw
612 204 4 0 28.432 24.078 5.552 # Ow
613 205 2 0 20.595 22.238 14.612 # Hw
614 205 2 0 19.478 21.121 14.197 # Hw
615 205 4 0 19.893 21.617 14.96 # Ow
616 206 2 0 6.802 10.367 -0.006 # Hw
617 206 2 0 5.663 9.201 0.095 # Hw
618 206 4 0 6.641 9.395 0.165 # Ow
619 207 2 0 7.889 20.359 22.509 # Hw
620 207 2 0 7.468 21.345 21.277 # Hw
621 207 4 0 8.11 21.209 22.03 # Ow
622 208 2 0 5.712 0.521 1.544 # Hw
623 208 2 0 5.528 0.409 3.162 # Hw
624 208 4 0 5.949 -0.009 2.358 # Ow
625 209 2 0 23.618 17.177 23.959 # Hw
626 209 2 0 24.625 17.983 24.96 # Hw
627 209 4 0 24.456 17.112 24.5 # Ow
628 210 2 0 20.092 20.244 7.393 # Hw
629 210 2 0 18.607 20.622 6.828 # Hw
630 210 4 0 19.323 19.925 6.838 # Ow
631 211 2 0 11.849 12.514 24.267 # Hw
632 211 2 0 11.934 11.882 22.764 # Hw
633 211 4 0 11.348 12.011 23.564 # Ow
634 212 2 0 15.48 7.1 29.574 # Hw
635 212 2 0 16.965 7.631 30 # Hw
636 212 4 0 16.455 6.875 29.591 # Ow
637 213 2 0 28.687 27.308 19.423 # Hw
638 213 2 0 29.289 27.054 17.926 # Hw
639 213 4 0 28.858 27.724 18.53 # Ow
640 214 2 0 13.859 17.76 20.002 # Hw
641 214 2 0 13.294 18.303 18.57 # Hw
642 214 4 0 13.229 17.573 19.248 # Ow
643 215 2 0 10.094 4.474 13.539 # Hw
644 215 2 0 10.963 5.818 13.86 # Hw
645 215 4 0 10.086 5.474 13.527 # Ow
646 216 2 0 9.934 15.138 21.56 # Hw
647 216 2 0 9.993 13.512 21.698 # Hw
648 216 4 0 10.355 14.303 21.206 # Ow
649 217 2 0 22.411 22.231 2.895 # Hw
650 217 2 0 22.555 20.613 2.729 # Hw
651 217 4 0 23.057 21.47 2.833 # Ow
652 218 2 0 -0.066 5.263 1.807 # Hw
653 218 2 0 0.777 5.221 3.205 # Hw
654 218 4 0 0.541 4.711 2.379 # Ow
655 219 2 0 12.054 23.754 19.693 # Hw
656 219 2 0 13.489 22.978 19.774 # Hw
657 219 4 0 12.924 23.595 19.226 # Ow
658 220 2 0 26.258 15.497 22.683 # Hw
659 220 2 0 25.85 14.772 24.088 # Hw
660 220 4 0 25.549 14.976 23.157 # Ow
661 221 2 0 19.673 5.337 29.794 # Hw
662 221 2 0 20.141 6.863 29.449 # Hw
663 221 4 0 19.534 6.304 30.011 # Ow
664 222 2 0 4.02 15.44 23.688 # Hw
665 222 2 0 2.542 14.958 23.186 # Hw
666 222 4 0 3.227 15.683 23.128 # Ow
667 223 2 0 0.543 22.713 11.331 # Hw
668 223 2 0 0 22.653 9.792 # Hw
669 223 4 0 0.012 22.179 10.672 # Ow
670 224 2 0 17.558 29.04 30.01 # Hw
671 224 2 0 16.353 30.005 29.48 # Hw
672 224 4 0 16.567 29.172 29.988 # Ow
673 225 2 0 12.938 12.544 9.847 # Hw
674 225 2 0 14.449 11.945 9.691 # Hw
675 225 4 0 13.548 11.792 10.097 # Ow
676 226 2 0 22.282 10.101 8.41 # Hw
677 226 2 0 22.75 9.667 9.913 # Hw
678 226 4 0 22.456 10.43 9.339 # Ow
679 227 2 0 2.012 23.473 19.724 # Hw
680 227 2 0 2.243 24.192 21.172 # Hw
681 227 4 0 2.069 24.351 20.2 # Ow
682 228 2 0 11.1 0.081 14.131 # Hw
683 228 2 0 12.545 -0.022 13.378 # Hw
684 228 4 0 12.091 0.069 14.263 # Ow
685 229 2 0 8.84 9.441 13.151 # Hw
686 229 2 0 9.814 8.146 12.944 # Hw
687 229 4 0 8.897 8.444 13.209 # Ow
688 230 2 0 29.293 12.141 10.432 # Hw
689 230 2 0 27.923 13.028 10.361 # Hw
690 230 4 0 28.294 12.101 10.404 # Ow
691 231 2 0 5.531 27.249 9.802 # Hw
692 231 2 0 7.115 26.915 10.015 # Hw
693 231 4 0 6.26 26.592 9.61 # Ow
694 232 2 0 10.288 29.345 9.29 # Hw
695 232 2 0 11.781 30 9.195 # Hw
696 232 4 0 11.267 29.144 9.239 # Ow
697 233 2 0 23.841 21.999 29.594 # Hw
698 233 2 0 22.736 21.619 28.453 # Hw
699 233 4 0 23.685 21.498 28.742 # Ow
700 234 2 0 22.859 0.552 16.881 # Hw
701 234 2 0 24.491 0.55 16.849 # Hw
702 234 4 0 23.675 -0.026 16.887 # Ow
703 235 2 0 6.779 11.78 15.139 # Hw
704 235 2 0 5.559 10.936 15.82 # Hw
705 235 4 0 6.476 10.872 15.429 # Ow
706 236 2 0 28.417 24.384 30 # Hw
707 236 2 0 29.041 23.753 28.629 # Hw
708 236 4 0 28.275 23.715 29.27 # Ow
709 237 2 0 1.869 7.195 11.697 # Hw
710 237 2 0 2.626 7.463 13.119 # Hw
711 237 4 0 2.193 7.898 12.33 # Ow
712 238 2 0 13.984 6.864 9.052 # Hw
713 238 2 0 13.074 5.509 9.11 # Hw
714 238 4 0 13.053 6.502 8.997 # Ow
715 239 2 0 4.553 8.967 28.808 # Hw
716 239 2 0 3.586 8.424 30.007 # Hw
717 239 4 0 4.154 8.153 29.231 # Ow
718 240 2 0 24.879 25.888 30 # Hw
719 240 2 0 24.627 27.5 29.926 # Hw
720 240 4 0 24.183 26.605 29.956 # Ow
721 241 2 0 19.412 21.237 17.801 # Hw
722 241 2 0 18.356 20.379 16.899 # Hw
723 241 4 0 18.447 21.011 17.667 # Ow
724 242 2 0 19.175 26.368 7.971 # Hw
725 242 2 0 20.042 27.749 8.061 # Hw
726 242 4 0 20.04 26.772 8.271 # Ow
727 243 2 0 21.814 19.75 16.201 # Hw
728 243 2 0 20.591 18.904 15.528 # Hw
729 243 4 0 20.874 19.434 16.327 # Ow
730 244 2 0 17.176 10.439 26.293 # Hw
731 244 2 0 16.808 8.905 25.872 # Hw
732 244 4 0 16.471 9.845 25.904 # Ow
733 245 2 0 25.283 9.494 0 # Hw
734 245 2 0 26.709 8.7 0 # Hw
735 245 4 0 26.082 9.251 0.549 # Ow
736 246 2 0 3.312 29.888 11.916 # Hw
737 246 2 0 2.53 30.008 13.344 # Hw
738 246 4 0 2.418 29.857 12.363 # Ow
739 247 2 0 15.218 0.842 14.859 # Hw
740 247 2 0 14.283 0.031 15.924 # Hw
741 247 4 0 14.736 -0.017 15.035 # Ow
742 248 2 0 19.883 15.63 2.356 # Hw
743 248 2 0 20.386 17.179 2.468 # Hw
744 248 4 0 19.639 16.547 2.672 # Ow
745 249 2 0 24.417 2.22 13.51 # Hw
746 249 2 0 23.751 2.428 14.986 # Hw
747 249 4 0 24.323 1.83 14.426 # Ow
748 250 2 0 18.089 0.61 24.678 # Hw
749 250 2 0 16.519 1.04 24.544 # Hw
750 250 4 0 17.346 0.803 24.036 # Ow
751 251 2 0 20.581 21.657 -0.002 # Hw
752 251 2 0 21.989 22.464 0.187 # Hw
753 251 4 0 21.567 21.559 0.132 # Ow
754 252 2 0 24.667 4.571 2.664 # Hw
755 252 2 0 24.712 2.939 2.641 # Hw
756 252 4 0 25.266 3.77 2.646 # Ow
757 253 2 0 9.646 4.728 21.585 # Hw
758 253 2 0 8.016 4.644 21.547 # Hw
759 253 4 0 8.856 4.127 21.709 # Ow
760 254 2 0 7.24 22.301 13.063 # Hw
761 254 2 0 7.781 20.766 12.924 # Hw
762 254 4 0 7.932 21.713 12.642 # Ow
763 255 2 0 16.006 3.025 29.049 # Hw
764 255 2 0 16.763 4.115 30.001 # Hw
765 255 4 0 15.893 3.869 29.575 # Ow
766 256 2 0 14.268 12.986 18.423 # Hw
767 256 2 0 13.675 11.688 19.217 # Hw
768 256 4 0 14.349 11.997 18.547 # Ow
769 257 2 0 20.709 15.446 10.055 # Hw
770 257 2 0 19.314 15.995 10.703 # Hw
771 257 4 0 20.16 16.261 10.242 # Ow
772 258 2 0 14.881 0.451 8.659 # Hw
773 258 2 0 14.48 0.052 10.191 # Hw
774 258 4 0 14.215 -0.029 9.23 # Ow
775 259 2 0 17.829 27.586 5.911 # Hw
776 259 2 0 18.745 28.479 4.896 # Hw
777 259 4 0 18.347 27.576 5.056 # Ow
778 260 2 0 4.029 8.857 5.162 # Hw
779 260 2 0 4.851 9.412 6.459 # Hw
780 260 4 0 4.853 9.337 5.463 # Ow
781 261 2 0 17.277 9.647 15.15 # Hw
782 261 2 0 18.413 10.577 14.435 # Hw
783 261 4 0 17.484 10.562 14.804 # Ow
784 262 2 0 2.888 29.638 24.324 # Hw
785 262 2 0 4.215 29.923 25.232 # Hw
786 262 4 0 3.219 30.001 25.195 # Ow
787 263 2 0 5.031 24.218 23.196 # Hw
788 263 2 0 6.479 23.52 22.907 # Hw
789 263 4 0 5.5 23.352 23.021 # Ow
790 264 2 0 5.275 11.772 18.694 # Hw
791 264 2 0 6.805 11.46 18.214 # Hw
792 264 4 0 5.952 11.052 18.539 # Ow
793 265 2 0 19.84 3.886 20.942 # Hw
794 265 2 0 20.608 4.079 19.514 # Hw
795 265 4 0 19.896 4.443 20.113 # Ow
796 266 2 0 23.265 8.237 17.873 # Hw
797 266 2 0 21.994 7.555 17.109 # Hw
798 266 4 0 22.322 8.377 17.572 # Ow
799 267 2 0 12.412 17.599 22.335 # Hw
800 267 2 0 12.636 16.074 21.798 # Hw
801 267 4 0 12.765 16.694 22.571 # Ow
802 268 2 0 19.77 16.6 23.676 # Hw
803 268 2 0 19.43 15.005 23.765 # Hw
804 268 4 0 20.136 15.698 23.906 # Ow
805 269 2 0 19.34 25.318 27.984 # Hw
806 269 2 0 17.952 25.655 28.775 # Hw
807 269 4 0 18.407 25.665 27.885 # Ow
808 270 2 0 0.558 10.102 12.497 # Hw
809 270 2 0 1.87 11.019 12.172 # Hw
810 270 4 0 1.189 10.401 11.781 # Ow
811 271 2 0 4.802 21.825 28.453 # Hw
812 271 2 0 4.162 21.798 29.955 # Hw
813 271 4 0 4.063 22.17 29.033 # Ow
814 272 2 0 22.087 16.92 26.229 # Hw
815 272 2 0 21.308 16.786 27.657 # Hw
816 272 4 0 21.833 16.293 26.965 # Ow
817 273 2 0 7.336 5.48 3.077 # Hw
818 273 2 0 7.812 4.774 4.47 # Hw
819 273 4 0 7.883 5.596 3.906 # Ow
820 274 2 0 18.94 7.508 9.379 # Hw
821 274 2 0 17.875 8.415 10.223 # Hw