417
 i =     5900, time =    11800.000, E =     -8967.2408881573
  O        14.2911358820        2.1373694878        8.8463208597
  O        15.5181419050        1.2183918468        4.9973635803
  O         9.5253494160       17.3511309279       16.9567562525
  O         6.0333429781       11.1518789276        0.6085199263
  O         2.2800389583        6.6454122055       10.7662543894
  O         1.6243070554        4.8348881914       12.6874964828
  O        16.3552765351        6.3833797555        2.6191357596
  O         4.8504670881       15.7282728112       14.2964092589
  O        15.1542319361       19.1021902480       16.1249159458
  O        12.7351671285        2.8227857640        6.1977580537
  O        11.2825139266        2.4241973554        1.0491935229
  O        12.7948687817       19.5290406018        5.0878559721
  O        11.7668914729        7.3634631851        1.6597704325
  O         4.7643721035       19.1164721428       -0.7351420315
  O         6.5319826483        4.1049831977        4.4619297105
  O         2.6918405522        2.1022541809        5.8015612093
  O        19.2320534263       16.0528734258        3.2690441584
  O        14.4964830014       19.5048626454       12.1862957431
  O        18.0839051978       21.2700516149        3.3054301957
  O         6.5714933447        5.2689371091       15.6188158904
  O         1.7244537088       18.0194024836       11.0440707202
  O        16.5442408084        2.8213012544        9.7479290495
  O        19.6240794168       11.5280150111        8.1447064039
  O         2.7016322150        3.1675362193        0.7297036381
  O         5.3146075076        9.5803240947       18.0073812990
  O        17.4972313116       13.4669771800        1.4103497515
  O         3.3822817824       10.2605267552        6.6978585903
  O        18.1402525649       20.0077276677        5.6918218600
  O         0.5587430224        8.8613603153       13.1112867102
  O        17.7854688427       12.8539958741       18.1480357699
  O        15.8811026050       16.7158556769       16.4190567993
  O         4.3838550087        6.4194069024        4.7606202680
  O        12.7668747799       19.9132565499        7.6955168679
  O         3.5858569849       19.6568636707       11.8653162378
  O         6.6994886833        8.7686761244        0.6144774609
  O         3.6562752671       19.4084931073        4.4946579951
  O         0.3509208628       11.4837563918       12.7536522900
  O         9.4266957039       18.9517473945        4.4932992986
  O        12.4076989165       19.9244920248        2.4471442362
  O        18.3964788861        7.0116216853       14.5349918430
  O         9.9261781939        6.4626460709        3.4382026326
  O         2.4208215919        7.1992442381        6.5553263504
  O         9.3769254966       20.0804487593        0.5220266208
  O         2.4636078858       19.1204317425        0.5149769881
  O         0.7932256109       14.9549514231        6.2100529514
  O        19.4426316664        8.3169046950       -0.4567126678
  O         2.9391554732        9.5728875026       17.0225463582
  O         2.6409206027        4.6798702088        5.3496552309
  O         2.3221280225       15.8065687184       13.6334496378
  O         2.9387963463       19.6421374095       16.6890067256
  O         1.7323429000       11.0268436102       15.1097269443
  O        17.1629381882        4.2308554709       16.0966443392
  O        18.4321083315        5.9908617811       -0.6658348545
  O         4.9884369995       13.5708666778       19.3278519746
  O         3.0335093076       16.8588143299       16.9518893819
  O         7.6620332601        5.1629276370       18.8229832373
  O        16.9132256343       17.3674388408        8.9588359424
  O         6.7372832654        6.9379710615        2.4244268549
  O        18.6985530780       17.4586155090        1.0744612296
  O         7.9321591073       18.6574775868       18.5093751907
  O        16.1560854593       11.5498067946       13.9084123375
  O        18.7169716267       17.0774100649        7.0355272969
  O        19.6833279202        3.1667963566        4.9783830428
  O        13.2384728644        2.4908887203       12.2291896699
  O         4.8934750176       18.3814541894        1.8363626689
  O         7.0181345831       16.3034204720       17.3503676712
  O         3.3679421500       18.0062729070       14.5894490505
  O         7.8414029590       10.5500106630       18.0489839329
  O        13.4867754456       15.4722265592       15.8948422516
  O         5.6683481766        1.9933736042       11.2840963812
  O        10.8486166411       15.5607479216       15.7553067988
  O         9.4423323402        3.2999294886       -0.5383571665
  O        15.4010572419       11.6296985459       18.6989712604
  O        18.7808826950        5.8925272823        3.6876117972
  O         9.9538367220        5.3732199652        1.0661500702
  O        19.4903824075       20.1173945746       13.3417348284
  O        18.2093256669       15.2634110542       18.7878199347
  O         5.6642419738        1.7208372003        5.3888178130
  O        13.6333212122        1.4420709675       17.2233943629
  O        16.1529029428       18.9917609105        0.9363453586
  O         7.8374470408        9.2990991649        3.0677489573
  O         6.1708938045       18.6893651860        4.2188241325
  O        16.5033265670        4.4823768244        4.3762625228
  O        18.6257334900       12.3425962873       15.0781090303
  O        11.9530766712       13.6188195040       17.1326490059
  O         4.2372857887       12.7358119243       16.8481918177
  O        19.7585812706        2.4142099067        1.4737796878
  O        12.7265377961       17.4385791115       -0.7551375517
  O         1.6827651424        4.3540048815        9.9218485754
  O        19.9579535504       10.8307746590        0.5719116174
  O         6.4524681286       18.7871348082       14.4230079613
  O         1.3881822407       13.4878611665       14.1385138697
  O         3.8624496814        4.7568443410       18.3910871633
  O         1.0527610387        8.4734099318       15.5843444849
  O         6.4236151364       16.4881773612        2.7475378988
  O        14.3123247305        5.7214414720       19.0968371189
  O         2.4349323725        3.9071917525       14.8705537265
  O        17.9352803664        2.8834696250       14.1082558712
  O        19.4575338540       15.2134854707        8.9146614343
  O         4.1666548590       18.0720250539        9.7299633640
  O         0.9721174011       18.0254698751       15.7859479548
  O        17.6841649107       10.3675673384       18.9299032959
  O        15.7769051524       14.1432539359       15.9993409988
  O         5.3024103857        3.3652469084        0.9210868568
  O        18.5926628481       17.8744415826       17.8437880692
  O        17.6739073316       18.6206663320       15.5344567043
  O         1.1173331005       16.4036080174       -0.5716105195
  O         9.6173481947        0.7185082376       13.9322068295
  O         4.0965149266       17.1854257071       12.1568827390
  O        18.0822458214        9.7574606665       14.6538939754
  O        19.8531563289       10.3194752416       17.3037655339
  O        15.0606690119       19.1304375963        9.3079091501
  O        18.4693737809        9.8776153170       11.0762291970
  O         7.4274905280        1.9705067694       15.0183030533
  O        15.8334237117       17.7347473894       13.8956875058
  O         3.8817779950        6.1586285733        1.0498664315
  O         3.3656204677        2.8696732933       12.3750977652
  O         7.8627885122        1.5756778281        9.8234803353
  O         2.7583872481       14.6264301532       18.2499870455
  O         5.4293252064       20.4852661663       16.3889945474
  O        14.5677695238       16.8591259521        1.2386463096
  O        16.5893694963       15.6969256610        6.8395858379
  O        10.4496224731        1.9683630100        3.5713187622
  O         2.0219272625       16.7708049074        7.8212674017
  O         3.8208430783        9.4471911789        4.1745564480
  O         2.9879187556       14.3749011819        3.3360654993
  O        12.6303608308       14.9908779929        0.7019099799
  O         1.7087188901        6.2874016736       18.5410159790
  O        12.1198014367       17.5172350595        3.5000478882
  O         3.1156948020        9.1236852043        0.4240259333
  O         4.3453910174        5.1798356897       13.1773523372
  O         2.2158345992        1.7276844427        9.0550307893
  O        15.6917383715        4.2837302859       13.8590910052
  O         6.9349435137        1.4623935707        0.2764256244
  O         8.9402850279       16.2052065788       -0.1442878762
  O         4.7615587901       12.5215448560        2.5276431335
  O        16.4440267716       18.4069016994        6.5548729235
  O         5.2042166244       18.8784816585        6.6572544990
  O        15.7353200521        4.0122212901        7.4560843129
  O        11.9469104332       20.4391629229       15.3285610624
  O         7.5169071609       18.6352897126        1.7972836029
  O        19.1430200649       15.4125933723       13.0300031642
  O        16.4249881826        1.5328501508        7.4732065999
  O        18.4113610305        2.3839768282       11.6092955739
  O         1.4461257868        4.5608895583        2.5202221002
  O         2.0877478772       12.1334225765        2.2120354177
  O         1.8157184813       10.1838957697       11.1111946000
  O         1.8162083861        6.8478740526        3.9871865772
  O        11.1819619630        1.4293873355       18.0164940403
  O         5.0278376612        1.5870758507       13.8240111158
  O         7.9334881192        3.6434227379        1.6799495774
  O        12.0409366652       13.5851638447       14.5269112407
  O         7.0081563872       -0.4231707906       11.3273412766
  O        19.1808028783        2.4326173375        9.1685152876
  O         4.0565615134        7.3344445432       17.9706258516
  O         6.4554813193        1.9090100065        2.9268931445
  O        10.9104150694       17.9623819010       14.7392810224
  O         4.1452599825        2.2305424321       18.1245608246
  O        11.8838177752       19.5478236608       12.8457615592
  O         8.6053153676       16.4789697631       14.4795544889
  O         2.6791034870        2.2713140190        3.1204154515
  O         3.6896822433       16.7891890106        0.1722137504
  O        18.4913470043       18.7308153197        3.3746189325
  O         7.0570752258       13.4324786216        1.4462801689
  O        17.5695242475        4.1072690870        1.9914205306
  O        14.6984214470        1.7464211541        0.9989157748
  O         1.0687051720       19.7869645631        4.3026428720
  O        20.0149154743        6.8712293123        1.5379182079
  O         8.3423719322        2.1377113008        5.0267491757
  O         9.3848848793        3.5170184672       13.8731635615
  O        21.0733936641       14.2088528622       11.5512031723
  O        12.8389979406        3.1585496917        2.9595354787
  O        14.6245391472       18.6421322346        3.2246582982
  O         2.8266868922       12.1218084198       19.0678514132
  O        16.7307521773       17.0073210936        2.7294129155
  O        17.6511432904       19.7953168843        9.9598544811
  O        14.6187917600       15.4706991296       18.3594838506
  O         7.9984905705        1.9679753492       12.3908858480
  O        15.0915714924        7.3080941708       16.1455769565
  O        16.6521310037       10.9909651530       16.5249347490
  O        15.9684273517       20.7089382216       18.1727172259
  O         1.1894955634        3.8256644447        7.5038907173
  O        16.8121732141       20.1490658166       13.0039247537
  O        15.6460165058        2.2004691890       15.6602648508
  O        10.6536412304        1.2432805393        6.1641067905
  O        12.1904889805        3.5514720064       16.4224729703
  O        16.4010375326       17.9854796841       11.3683313326
  O        17.3726821187        2.0051299537        0.6447598807
  O         1.3509542232        9.9680483861        4.9768954101
  O        20.0107915925       13.4928513995        0.3709028620
  O         3.2277929845       12.0347583079        4.6941948959
  O         9.0341707903        7.8014465264        1.2156302446
  O        19.1086118365        5.8942241003       11.3141013348
  O        12.5915504927       19.8995526802       10.2783140145
  O        19.3612417567       20.2867456603       16.9918488798
 Na        19.4572478138       13.6148485720        3.0391791267
 Na        11.5419794116        4.7980011320        4.1353297799
 Na        14.8667374299        8.7862600050       18.1254068522
 Na         5.9274594768       16.8553025646       10.7909646391
 Na         4.4703238563        8.4212741149        6.2650191007
 Na        17.2232797090       14.0054540387       13.1204930733
 Na         1.3993736797        1.0145319326       11.4318341746
 Na        17.9569405313       13.7968354522        7.6024985029
 Na        17.7607832021       10.6273184354        8.9191945564
 Na         7.8111344268       17.1886822142        5.1073312779
 Na        10.5115257236        4.7055894176       15.2368755951
 Na         1.7103276635       10.0063151176        8.6514426463
 Na         6.0665239367        6.5217248271        0.0322706216
 Na        10.2456286401       18.4801880615        2.3708525953
 Na        12.9335976482       17.8630052214       16.5202682219
 Na        10.0853442278        1.0091636210        8.9503237398
 Na         7.9997022178        5.3305991809        3.3546968653
 Na        18.0392101859       14.2220264421       16.3708613874
 Na        13.3898579329        3.5830358047       14.1869162508
 Na         5.8251587893       10.3204497305        3.4098023727
 Na        16.2394273373       11.4339266086        1.3854207559
 Na         0.3868347153       13.1366031044        9.8650825706
 Na         6.5452862687       18.9552074741        8.7687483868
 Na        13.6034322802        3.7528794794        0.5855583327
 Na        18.5537189999       16.0327041420       10.8723599658
 Na         4.0867312121       17.0808849790        7.6002914460
 Na        15.7603050220        7.6079509560        4.6615554472
 Na         4.7810271783        6.9416987904       14.9738693308
 Na        12.0902771640        6.4641247957       18.8745569577
 Na        19.8507110339       19.8434380129        0.0215218787
 Na        12.9999552330       19.6611030897       19.5177115505
 Na        10.8795602186       17.3814380953        5.6610407446
 Na         2.5240390422        5.9625298871        8.3752205808
 Na         8.4522840832       10.0163840109        7.3119983009
 Na        11.5865422652       12.7434166047        5.8070754665
 Na         2.3123319262       13.2092199903        6.6914785990
 Na         3.2811826001       14.3430149248       15.4540940616
 Na         7.5331049647       12.3807436623       10.8288004162
 Na        16.4226547044        5.4596840228        0.2143856737
 Na        20.6057920298       18.7802319454        8.8101942898
 Na        20.5087261257        5.7077756430       16.1450354422
 Na         4.6142689580       15.4695641172        1.8855060375
 Na        10.8525168967       15.3015104985       -0.8380412408
 Na         2.5026372394       15.4985733342        9.8379898644
 Na         1.3130252825        1.9497039574       15.2093374719
 Na        15.1485004594        2.1810368452        3.1504727763
 Na        18.6646376780        4.8839841673       13.3243815999
 Na        13.2609890158       12.9913473458       18.9083545529
 Na         4.7056282211        4.7790831085        2.9884863335
 Na        14.9593711118        3.5407949121        5.4538057047
 Na        15.8022691350       14.8017226983        1.9752974353
 Na        15.9963015096        6.8797631222       14.1155410053
 Na        14.4977005347        5.0632655444       16.9986916268
 Na        19.7382174518        7.9653522188        6.0021248285
 Na         4.6252736355        4.1613967473       16.0895742374
 Na        20.0347102294       17.8975123558       13.2362043920
 Na         3.2181883442       12.4056081652       11.5538837093
 Na        17.1193219108        6.6151086373       17.0021369250
 Na         6.5999051409        4.1661899059       13.3378659730
 Na        17.7568264792        2.6826326311       17.4766987324
 Na         4.1303952128        1.4446243272        7.9337163550
 Na         7.3030287107        3.1283618041       17.0852267065
 Na        11.0106619717        4.2610027312       11.8682429400
 Na         4.7806372678        5.4383432285       10.8339366401
 Na         6.9333678936       14.0054882930       18.0057294641
 Na         8.2831216345       18.1133153960       12.8560361596
 Na         4.5768721849       10.7593865701       15.8896807267
 Na        10.1670847106       12.1558615724       17.3164085924
 Na        14.0873169404        6.8439197582        1.8337275673
 Na         7.7176434545        9.8808101617       15.6002541474
 Na         4.3244061173        7.7689922351        2.6015510733
 Na         1.6201492251        9.3461018506        2.4460283925
 Na        17.9774781909       15.6705263401        4.9656632411
 Na         8.8006204713       11.9850368430        2.4293162212
 Na        14.5169581881       12.2692047511       15.4196103658
 Na        15.2513346892        3.7584089784       11.6249178725
 Na         1.8252679932       16.0196644151        4.4391285080
 Na        17.9127825958        3.9064112724        6.2531850909
 Si        15.8608374976       18.8780398609       12.6704083451
 Si         8.2470693899       17.1141764306       18.0756714347
 Si        18.1929735360        1.5640523720       13.0757008097
 Si        10.2314089617        6.8657600235        1.9364787237
 Si        10.3060574768        1.9613834458       -0.1188113665
 Si         2.8397696826        6.3441064438        5.2077160102
 Si        19.6871507891        6.7595419481       -0.0674447786
 Si         7.5954313572        8.1841140937        1.9699474045
 Si         2.5711001476       18.1165154914       15.9982664078
 Si         3.2900693210        6.2055911922       -0.4039087318
 Si        19.0352251139       18.8082673197       16.5544863802
 Si        16.5004150995       19.9935668901        6.0646478566
 Si        16.7999680011       11.5182153932       18.0080438483
 Si        18.2262817445        2.6344976306        1.9217391007
 Si        20.0587684172       15.8829045198        7.5709860562
 Si        18.9620355283       16.7226697748       -0.4335060740
 Si         8.7320720027        4.4713453227        0.4360573734
 Si        19.1370412322        8.4058462126       14.4480948548
 Si         3.8345301406       18.4439646557        0.5197802437
 Si        14.9650807399       15.3030083718       16.7107934471
 Si        15.5226094195       17.9208589912        2.0356512236
 Si        17.3261540793       11.1973979432       15.0284740642
 Si         3.7042863616       16.6564965057       13.6801750355
 Si        20.2220919409        6.0158367554        2.9538441921
 Si        15.7439226801        2.7456232647        8.3574341879
 Si         6.6222780143        2.6097488376        1.4763472880
 Si         1.2610234382        5.4601501895       11.1663685717
 Si        12.3194288286        1.2435855675        6.2291174833
 Si        17.9568650646        2.0210266823       10.0730754750
 Si        19.2964927290        9.8986146590       18.7705351176
 Si         9.6805703083        1.0849285840        4.8378292334
 Si        13.5303410078       16.2421570928        0.0061556742
 Si         1.5646313436        9.8220538376       16.2529990379
 Si         7.1699393611        1.1195196894       11.1652523393
 Si        16.4684395667       18.6018852190        9.8482965145
 Si        19.8228113042       10.0746716337       11.9050653210
 Si        13.7039870176       20.0164252613        9.0103763741
 Si         2.9606093764       10.3707495727        5.1376702729
 Si         4.0148039033        3.3580432598       -0.1606128553
 Si        16.1702141804       17.9685140882       15.5191783743
 Si         5.7206452312       12.6549274763        1.1545268975
 Si        15.2238791874       20.5862075500       16.7441716464
 Si         4.4448270509        1.6358214496       12.3116863581
 Si         2.6585128616       16.1931308954       18.4918362644
 Si         2.4895933953        1.2141226554        4.4614160481
 Si        12.1420340608        1.9924922929       16.7014146118
 Si         9.9100325391       16.8298803378       15.4599775227
 Si        17.1407776968       17.1278895678        7.3004712986
 Si        18.3817903778       13.7067177761        0.0892234628
 Si         8.6893811051        2.0837743187       13.8336385392
 Si        17.2203317311        5.2145448732        3.2377704878
 Si         6.1028310201       20.2622999578       14.8709714365
 Si        11.1046142112       19.5336076839       14.2446835726
 Si         6.8082351294        2.5374997278        4.4899779355
 Si         3.3455747745       18.2081324663       11.0569548432
 Si         7.8593180270       19.4931413396        0.4728376860
 Si        13.0400566747       20.3132557894       11.9545763847
 Si         5.1508837519       19.5096721643        5.2300977045
 Si         0.6513564646       12.0228318718       14.2032025702
 Si         1.1932280664       14.7451145601       12.9474873647
 Si         3.2890353034       12.8099470442        3.2586604546
 Si        13.0088323513       18.8319594865        3.6128402352
 Si        16.5141121928        3.4705498931       14.8998259761
 Si         4.2654844248       20.0931057971       17.5155612891
 Si         1.3166707497        3.0472416945        8.9661418586
 Si         3.7801811554        8.9920615095       18.3750164569
 Si         6.1831963160       18.0823992774        2.7131893602
 Si         1.7833162529        3.0944577668        2.0248104446
 Si         1.5562375553       12.1486412620        0.6832680449
 Si        16.0058069879        1.1405777064        0.4070642012
 Si        18.4320364349       17.2439522588        2.6762231180
 Si        12.0549275308       14.5101639959       15.8553725623
 Si         3.0124096359        4.2692113593       13.3344287226
 Si         6.5877388531       10.0692615741       -0.4269219154
 Si         1.5815066495        3.4185314093        5.8709856387
 Si        11.7274648151        2.1417151974        2.5863944422
 Si        18.7891255541       20.0603634108        4.2173858089
 Si         3.6992716595       13.2702574901       18.2840837718
 Se         4.9529181738        9.2626860717       13.3220187570
 Se         7.7566286305        7.2632220944        6.8599539190
 Se         5.0504241353        4.1388493690        8.2344286402
 Se         8.1161599476        6.5320755721       11.6340258420
 Se        10.0925227788        4.3096899071        9.0753155908
 Se        13.8053342214        5.3800400607        9.7730668108
 Se         4.7838967980       13.3027241322        9.4296613427
 Se         6.6702108046       11.4756080800        6.0067469578
 Se         5.2211331782        8.6695291696        9.4941686327
 Se         9.1687510033       10.5152114339       12.9185773123
 Se        10.8844567449       10.0828523144        5.0394880122
 Se        11.1199728783        8.5806621351        9.5034886263
 Se        12.2670034032        6.6151731017       13.3740967327
 Se         9.8649902795        8.0495797368       16.6108076642
 Se        13.1594641728        6.4601676745        6.0264216616
 Se        15.6273732179        8.4269766918       11.6498013043
 Se         9.7054848667       14.7756154979        4.0270397551
 Se         6.9382019273       16.1858799600        7.5620072793
 Se         9.5596777948       15.0558056142       11.5716468576
 Se        11.0662523893       11.1464917267        0.6766308963
 Se         9.9269434022       12.4054363668        8.5717634481
 Se        13.2683932341       11.8861175821       11.6835335107
 Se         7.8857715138       12.5731513213       15.5210492727
 Se        14.7755109827        9.6443094124        2.7893656057
 Se        14.4323713961       10.7859820339        7.6653996834
 Se        16.7686098867       13.1117886357       10.3549527418
 Se        12.4062779237       10.4571192925       16.2686011015
 Se        17.4939430518        7.5200846469        7.7658885940
 Se        10.1533468192       17.4291775605        8.5895489700
 Se        13.5201688381       16.0730584466       12.0689958963
 Se        14.0613185095       13.6743747215        3.9672100827
 Se        13.0375828775       14.9595213787        8.1038820519
 Se        17.2481823095       12.4603574734        4.8227443363
 Cd         5.9685940615        5.4107609731        6.1956190507
 Cd         9.2716143998        6.7439661165        9.0737994978
 Cd         3.3692520667        8.4689420936       11.3839993938
 Cd         7.9682078253        6.4098960289       16.6090799726
 Cd        12.4240417386        4.3429580991        7.7412450762
 Cd         7.5096074814        3.4871746558        9.0588883069
 Cd         5.0167986081       10.8360317954        8.1921321324
 Cd         6.2930216374       13.7043745725        7.2030614597
 Cd         6.8132699375        8.7071084935       11.5365553768
 Cd         9.8253750129        9.3445243431       18.7342411401
 Cd         9.0853330737        8.3448223166        4.7680539592
 Cd        12.4529826082        8.8267486296        6.9100024569
 Cd        10.0090107998        7.9187073506       12.8337606887
 Cd        13.2797834237        8.0889412815       15.2952388683
 Cd        15.3559906180        6.1064829108        7.8455728260
 Cd        13.2244251262        7.5993721837       10.9668591290
 Cd         9.3771232011       15.0074987087        8.7186279201
 Cd         8.7250791607       14.1671456675       13.7718352967
 Cd         6.5059674977       16.7753594762       15.3310231424
 Cd         8.1554145896       15.4279911209        1.8664996334
 Cd        12.7591206081       12.3449599560        8.9441726789
 Cd        10.6162032588       10.9614164881       10.6813532959
 Cd        11.3768540910       11.4572649218       14.0917537497
 Cd        12.0774264935        9.5989495131        2.6702857659
 Cd        14.9977747742       11.0234905605        4.9876259274
 Cd        14.7371524814       14.7407351530       10.1636794276
 Cd        16.1780917889       10.9970329357       11.8021263485
 Cd        17.9710244919        7.4209178843       10.3567194235
 Cd        12.1992057308       15.1961553994        2.9310123616
 Cd        11.7357811263       16.9475195102       10.5066851307
 Cd        14.6563497736       14.8879591802        6.1357361921
 Cd        12.0533060781       14.0513514433       12.2732655948
 Cd        19.3439466041       11.3157702032        6.0082162655
