417
 i =     8900, time =    17800.000, E =     -8967.2351478392
  O        14.4651885709        2.2170044208        8.7773945801
  O        15.9847538384        1.4781213964        5.1247525986
  O         9.7909011112       17.1827631854       16.9547721177
  O         6.2498125471       11.0269989452        0.7399730607
  O         2.4017284575        6.4415700034       10.2620410814
  O         1.7405747731        4.5814890481       12.3159954034
  O        16.6099579912        6.1201532327        2.2746167103
  O         5.0415320657       15.6729822614       14.2422178802
  O        15.4863828149       19.0018487848       16.1138934017
  O        13.0486225544        2.7196905877        6.2742729742
  O        11.8144238523        2.3764944459        0.9101424686
  O        13.1352936822       19.5474362536        5.1233845011
  O        12.0642315922        7.1580101880        1.3388544306
  O         5.0259659115       18.9745053658       -0.7190897089
  O         6.8750866527        4.0983883390        4.5330569648
  O         2.7019588331        1.8963148172        5.7277511494
  O        19.1452202288       15.5890015550        3.0418888149
  O        14.4705212326       19.5142284898       12.4208384473
  O        18.2814115073       20.6063251850        2.9807284785
  O         6.5069752659        5.1000654105       15.2247556840
  O         1.9476462809       17.8447800085       11.0798455058
  O        16.6631145301        2.8054182427        9.7591177966
  O        19.4697008490       11.4741915892        7.8694998788
  O         3.2000861093        2.7087771956        0.5823586899
  O         5.6805983694        9.5763999081       17.9087320054
  O        17.5068775324       13.4430888879        1.1368605971
  O         3.1066753411       10.5831516599        6.4027542038
  O        18.5127534242       19.8505567056        5.5258307377
  O         0.7140559362        8.5622533013       12.9285217780
  O        17.8684307817       12.8661105980       18.0416517916
  O        15.9224033263       16.5559903032       16.2186525985
  O         4.3998899384        6.2013061473        4.6937915696
  O        12.7236737853       19.7684887068        7.7371250503
  O         3.9375322516       19.5687688304       11.4715057483
  O         6.8871767559        8.5586914538        0.4803109758
  O         3.9345862153       19.5478829801        4.2427876776
  O         0.9522703979       11.2099332137       12.6679641017
  O         9.9630310343       18.9726145421        4.4387309889
  O        12.6872056294       19.9584443502        2.5325718945
  O        18.6136326938        6.7675969331       14.4209656279
  O        10.4216475366        6.3668897484        3.2266871308
  O         2.3123499408        7.0803529386        6.1903886123
  O         9.8294546662       20.1103609707        0.3261141618
  O         2.7734751775       18.9689632575        0.7280711064
  O         0.5341699323       14.7082057858        5.8997857248
  O        19.5785908911        8.1063269419       -0.7673514735
  O         3.2238370455        9.2903102656       16.8219081682
  O         2.5312044386        4.5280491116        5.3815624043
  O         2.5750130755       15.7415265963       13.7240964285
  O         3.4738159603       19.5917515981       16.5849949764
  O         2.1284232544       10.9650013423       15.1666873103
  O        17.3834646820        4.3200390666       16.0409655216
  O        18.9149583488        5.5004747427       -0.6307040568
  O         5.1363230816       13.4425153728       19.2633881292
  O         3.3506432486       16.9625987296       16.9907511836
  O         7.8666741247        4.9341273139       18.4336440175
  O        16.9785270601       17.3511489960        8.8398089298
  O         7.1119445750        6.7512675496        2.4661779516
  O        18.8997544398       17.4122821198        0.9306595689
  O         8.1605671306       18.5391490126       18.4688695491
  O        16.6110556216       11.4585854549       13.7635469351
  O        18.9097134474       17.0394102793        7.0902640888
  O        19.8650743069        2.8817031086        4.6405925375
  O        13.1918660842        2.6222836596       12.2271487001
  O         5.2641828707       18.4245024484        1.6447058219
  O         7.2582458161       16.1573745125       17.5485683591
  O         3.6911066771       17.9556758619       14.6131233833
  O         8.1777153560       10.5125499812       18.2615705866
  O        13.7631964604       14.8582025989       15.5257914301
  O         6.1834294729        1.8683448343       11.7070729273
  O        11.4545625090       15.9192056972       15.3719809728
  O         9.8878963096        3.3878751056       -0.7066212732
  O        15.5311320106       11.3992232383       18.4165594318
  O        19.0293736367        5.7848714913        3.3272235593
  O        10.1664913081        5.4640509141        0.6436594300
  O        19.7194781379       19.9040574401       13.2034862126
  O        18.4330553871       15.2497081891       18.6818996852
  O         5.9072568984        1.6823537038        5.2094305710
  O        13.9070175926        1.3917633741       17.2983525811
  O        16.5118502542       19.0934309428        0.8080729147
  O         7.8982145800        9.3864831024        2.9078275061
  O         6.5164534738       18.7668681886        3.9657603943
  O        16.7852806063        4.4935909020        4.3371168887
  O        19.0232372175       12.2241568996       14.7875952085
  O        11.8225452886       13.7316358512       17.0155956941
  O         4.6410206480       12.6348561564       16.7929144569
  O        20.2952548688        2.2196530032        1.5811081914
  O        13.1310449506       17.1721137175       -0.8569731059
  O         1.0793380318        4.2583751861        9.7293259633
  O        20.2080521845       10.5577411269        0.3033051321
  O         7.0926095157       18.5346003435       14.3908437007
  O         1.8497764512       13.3611653308       14.0049491050
  O         4.0519444162        4.5803011929       18.1879228182
  O         1.1424168439        8.3365595511       15.5245617117
  O         6.8217504619       16.5806631419        2.7353833788
  O        14.4908546737        5.7675783678       18.8811083655
  O         2.7598670679        4.1619678908       14.6616318549
  O        18.1274142421        2.4632753671       14.3409058465
  O        20.3344383704       15.1205734143        8.4929147460
  O         4.1843398080       17.4625985859        9.5281944416
  O         1.3261332515       18.1205129611       15.7258602246
  O        17.8908023790       10.2802649655       18.5139605635
  O        16.2181723116       13.9860415063       15.7926288077
  O         5.6875751026        3.5030016630        0.6744876511
  O        19.1540394106       17.5691571840       17.6947325426
  O        18.1087797340       18.1311766444       15.4907707207
  O         1.5002976244       16.2414540165       -0.3364184556
  O        10.0384586708        1.2478504350       14.4613383165
  O         4.3063404028       17.0688202105       12.0523156770
  O        18.4073498447        9.5485929250       14.6435355632
  O        20.1302964723       10.2310064475       17.1456021820
  O        14.9531661507       18.9663730932        9.1960505107
  O        18.7367750204        9.8781996405       11.0037226603
  O         7.4437832938        1.7572545660       14.5232884149
  O        16.0212927407       17.6627645827       13.8481754922
  O         4.1844179546        6.0201442211        0.8258197807
  O         3.6378012775        2.6517415856       12.4186643032
  O         7.8589310916        1.3748930465        9.6513578868
  O         3.1835034045       14.6302616701       17.9367130379
  O         6.1225531985       20.1343202194       16.3943706561
  O        14.8765195262       16.7733614004        0.9567963898
  O        16.6857762259       15.6153130549        6.7637909165
  O        10.6120709146        2.1334353286        3.4167915072
  O         2.1435420228       16.6842784667        6.6894449310
  O         3.6675478595        9.4974158741        3.8490048987
  O         3.0621840820       14.4190502645        3.1179952363
  O        13.1702643166       14.8142572628        0.5876293932
  O         2.0434413872        6.1750310337       18.2442882791
  O        12.6721583511       17.4332209575        3.5035771442
  O         3.5460008741        8.8570892308        0.1560087338
  O         4.4930050787        5.1607838755       12.7759349082
  O         2.4455619298        2.0166624502        9.0887677595
  O        16.1876908718        4.1867818868       13.6148153030
  O         7.1968382858        1.4478904643        0.1873008518
  O         9.2600314837       16.2265387769       -0.0295943576
  O         4.7247788134       12.3239739253        2.2737614162
  O        16.6300766923       18.2449222911        6.3317864849
  O         5.2919797199       18.9171650124        6.5362138652
  O        16.1122469845        3.9215841432        7.3549201866
  O        12.3253603392       19.9028790055       15.4450966174
  O         7.9797115391       18.8627308309        1.7858501337
  O        19.4509862078       15.1364971740       13.1788270392
  O        16.6962234596        1.2936381107        7.5830494366
  O        18.4260111400        2.2561217206       11.6380722048
  O         1.9561774114        4.4974987670        2.1856792214
  O         2.0851374203       12.1438099099        1.9215412313
  O         2.0039717941        9.9056113758       10.9936157507
  O         2.0789114308        6.6643352697        3.6085551458
  O        11.4012960955        1.6100722686       17.7984680507
  O         5.0847355716        0.8889415309       13.8608110025
  O         8.3135188495        3.6174137894        1.3579771790
  O        11.5123037911       13.5478651861       14.3354290434
  O         7.1001336579       -0.7297945760       11.0906815209
  O        19.1722753764        2.1544913147        9.0258490473
  O         4.3786958851        7.1684936191       17.6618524979
  O         6.7631160691        2.1183783744        2.7518143745
  O        10.7189691731       18.1183329857       14.5371680763
  O         4.7375051386        2.1699826484       17.9171168686
  O        11.8660647598       19.6656932817       12.6872509110
  O         8.8677065294       16.1185326731       14.6368795044
  O         3.1335990927        2.3214652962        3.1713637878
  O         4.0780402402       16.6930505802        0.0654652108
  O        18.7961806312       18.1915006122        3.5949969118
  O         7.2232591923       13.3203925898        1.6592288050
  O        17.8919716249        3.6912615444        2.1496994161
  O        15.4757687726        2.0549371116        0.7800604844
  O         1.4024684329       19.6444048196        3.9575212577
  O        20.3631287545        6.8475519809        1.3376558012
  O         8.4778874453        1.8990162993        4.8497877694
  O         9.2299468200        3.4745285446       13.4633227910
  O        21.3837125872       14.0817213510       11.5296359463
  O        12.9723302444        3.2519390717        3.3188912313
  O        14.9456475568       18.7579837262        2.8829646059
  O         2.8829622026       12.1786708943       18.7595929055
  O        16.8730549041       16.9418615924        2.4444559214
  O        17.6317489708       19.6502362947       10.0603166500
  O        14.9240664619       15.0977975884       18.1039907790
  O         8.7132762120        1.1585427116       12.1812510634
  O        15.2891511278        7.0809070701       15.9492138835
  O        17.0207656257       11.1646007605       16.2600822515
  O        16.5267449783       20.6792405530       17.8165006122
  O         1.0081736879        3.5642332127        7.2180445252
  O        16.9928305638       19.9135592415       13.1294383837
  O        15.6044860830        2.2263011504       15.4286476262
  O        10.8577143847        1.3651368901        6.0337922282
  O        12.3385838477        3.2161707242       15.8873315623
  O        16.2355127578       17.9470825318       11.3210406640
  O        18.1444673127        1.7348412417        0.3580751670
  O         1.2544559009       10.2867946216        4.3624922286
  O        19.9934161999       13.2047715548        0.0405695391
  O         3.1686295490       12.1186663406        4.3585087300
  O         9.3264627463        7.8512606877        1.2708262684
  O        19.2675603547        6.0171481921       11.3066027628
  O        12.8586068550       20.1297600435       10.3654343554
  O        19.3813720298       20.1900240109       16.9297445763
 Na        19.4562098005       13.2712225244        2.7294759131
 Na        11.6140771526        4.7473489219        4.4380165759
 Na        14.8328398871        8.1815828445       18.0072234084
 Na         6.3908925212       16.5726441449       10.6965193218
 Na         4.4159671875        8.3446793555        5.8476909578
 Na        17.4985048967       14.2862341696       13.2770717552
 Na         1.6244099194        1.0941534716       11.2124475969
 Na        18.3003045028       13.5630317105        7.4525407037
 Na        17.7154552390       10.2467403874        8.6810848892
 Na         8.1981665230       17.2848297477        4.9049541210
 Na        10.8958859066        4.6817954199       14.8136788042
 Na         1.6864534203        9.9601971829        8.3298301044
 Na         6.4903346266        6.3363518239        0.2645184537
 Na        10.5871308152       18.3080247530        2.3113200807
 Na        13.3855911652       17.7151171721       16.2536751814
 Na        10.0246343038        1.1374400511        9.2157030368
 Na         8.4844304917        5.2544101388        3.5934599594
 Na        18.7124899941       14.0822141018       16.1906271142
 Na        14.0025761051        3.6396879857       14.1843425286
 Na         5.8210180989       10.5336715089        3.4492693144
 Na        16.3579193867       11.4527517756        1.7593603770
 Na         0.6803701713       13.0719683431        9.7646327021
 Na         6.4696876812       18.8410968350        8.5920663751
 Na        14.0270939348        3.8553551703        0.8188466238
 Na        19.6809437108       16.3351583120       10.3270391240
 Na         4.2556133647       17.0178624672        7.0399329086
 Na        16.1068217716        7.0029205596        4.5001996030
 Na         4.7819231506        6.8435770454       14.3831323795
 Na        12.1805218599        5.7860469991       18.6470784381
 Na        20.0907502282       19.4711597815        0.2218713834
 Na        13.4434205880       19.5501992807       19.5672107551
 Na        11.5520844203       17.8536933094        5.7967051092
 Na         1.7439649882        5.9290634225        7.8636407038
 Na         8.6809986510        9.8735857247        7.1196581899
 Na        11.1462099356       12.8328472299        5.5268499607
 Na         2.4965023884       13.0888379133        6.4844719550
 Na         3.8103489523       14.0396745252       15.0594734957
 Na         7.5290253707       12.3872840701       10.8428510252
 Na        16.8175472372        5.4388711305        0.0655547628
 Na        20.3173330045       18.8969923243        6.8656583959
 Na        20.6653021687        5.7917627348       15.8813671184
 Na         4.8632027658       15.3225082408        2.2005376692
 Na        11.2043505363       15.5842997710       -1.1319239431
 Na         2.9948941633       15.2507548200        9.9552143598
 Na         1.8363374996        1.6822558684       14.8814819389
 Na        15.4835770310        1.8103750705        3.0305975495
 Na        18.6558143903        4.9195891182       12.9924790479
 Na        13.6203053359       12.7253921282       18.6512770481
 Na         5.2085831427        4.9542963839        2.8338517706
 Na        14.9812730874        3.4745648793        5.3369059779
 Na        15.8941286688       14.7425309030        2.1884545619
 Na        16.4044738959        6.7269383758       13.9164479292
 Na        14.9917386513        4.9876951223       16.7525745477
 Na        19.9672641117        8.1326576330        5.1806967501
 Na         4.7133119490        3.9421656748       15.8523805033
 Na        19.9216328801       17.5650369337       13.5381624885
 Na         3.3217287153       11.8609127786       11.7424117780
 Na        17.6337869286        6.5478916752       16.7329378893
 Na         6.8023733568        4.5113221955       12.9995982981
 Na        18.6109778297        2.7962501934       17.2809774993
 Na         3.8942831980        1.0442978869        7.6040572301
 Na         7.6780844895        3.3109348745       16.5058064097
 Na        11.1131661606        4.0025180310       11.4101734034
 Na         4.6881515735        5.2826996156       10.5873021534
 Na         6.9320471482       14.0023570183       17.5809764741
 Na         8.8576211150       17.6451539936       12.6445536033
 Na         5.3990264704       10.7772957652       15.8342066948
 Na        10.2381430658       12.1527565400       17.5126538615
 Na        14.2770129814        6.4200781474        1.8917483508
 Na         8.9445682603        9.9512275267       15.3576399482
 Na         4.0638250009        7.8008674698        2.1663098748
 Na         1.8586755973        9.3544453810        2.1794731976
 Na        17.8702059824       15.2507262136        4.9415489857
 Na         8.9039739214       11.7739373393        2.5042335778
 Na        14.9976836039       11.9162068791       15.4009688047
 Na        15.4986119107        3.5175313045       11.6216296934
 Na         1.8994344105       15.8802554746        4.2317512579
 Na        18.0341596298        3.3699529303        5.8702361466
 Si        15.8994611421       18.7675035200       12.6892940036
 Si         8.5514799673       16.9675891163       18.1102616478
 Si        18.4127315586        1.3518445044       13.0471911302
 Si        10.5408702960        6.8134477346        1.6606193293
 Si        10.6764279968        2.0613497113       -0.2461645374
 Si         2.8357513015        6.1045647780        5.0430532164
 Si        19.9808642014        6.5990236901       -0.2586438168
 Si         7.7498889726        8.1354456461        1.8931355926
 Si         2.9435017464       18.1875139114       16.0058538007
 Si         3.6265912981        6.0832954606       -0.6679244187
 Si        19.2689370137       18.6509742608       16.4639778216
 Si        16.8248614203       19.9393753811        6.0820462901
 Si        16.9670828918       11.5186893953       17.8234001291
 Si        18.6785590071        2.3509876186        1.8291693759
 Si        20.2493523096       15.7836768859        7.0419501002
 Si        19.3147611344       16.5900275967       -0.4509648593
 Si         8.9232003168        4.5054292415        0.0604902620
 Si        19.3428921154        8.2241676306       14.3600096398
 Si         4.1472542747       18.2988188782        0.4956441112
 Si        15.2095076739       15.0066609771       16.4265678149
 Si        15.8182485988       17.8790554533        1.7440910855
 Si        17.7670819488       11.0538270400       14.8099250598
 Si         3.8943705613       16.6345636069       13.5886868215
 Si        20.4825445493        5.8307616382        2.6238044796
 Si        15.9375824431        2.6401860578        8.2224064324
 Si         6.9532033690        2.6115679150        1.2840151351
 Si         1.3342135369        5.4134206799       10.8782231604
 Si        12.4989974072        1.2473302188        6.2605094467
 Si        17.9999669010        1.8974854905       10.0723317104
 Si        19.4230724441        9.7087323256       18.4817951796
 Si         9.9196073507        1.2000774723        4.7147262881
 Si        13.9115659376       15.9817668487       -0.1610244474
 Si         1.8490008586        9.6757242594       16.1340402819
 Si         7.4080365659        0.8500662097       11.1359041367
 Si        16.4399803088       18.5066076331        9.7972513611
 Si        20.0555873587        9.8433398957       11.8731210589
 Si        13.7906754111       20.1105484676        9.0053621863
 Si         2.8500873096       10.5634850594        4.8049230444
 Si         4.3950635915        3.2663576118       -0.3007075146
 Si        16.4425482386       17.8720384984       15.4507417395
 Si         5.8593957843       12.5599489294        1.1225904308
 Si        15.4073441288       20.5571293081       16.6582298123
 Si         4.7187789696        1.4020419778       12.2827463311
 Si         2.9859238739       16.1729328736       18.3425500374
 Si         2.7274184852        1.2202893616        4.2579421040
 Si        12.4691562432        1.7848758223       16.5439837232
 Si        10.0733057443       16.8778777675       15.3463055331
 Si        17.2226121081       17.0398097633        7.2450192284
 Si        18.3733667695       13.7059764584       -0.1074738079
 Si         8.8498549034        1.9824863331       13.6580199753
 Si        17.5082914983        5.0738812060        3.0429187155
 Si         6.4334575066       19.9080964271       14.7566928504
 Si        11.2173579379       19.6013078261       14.2490882898
 Si         6.9807944514        2.5422195859        4.3825909814
 Si         3.5318983839       18.0101508684       10.8589822860
 Si         8.2474424073       19.5530918337        0.3182869595
 Si        13.1529518001       20.4218760940       11.9786451226
 Si         5.4191697930       19.4652164013        5.0465807650
 Si         1.1970607097       11.9347886446       14.1055683567
 Si         1.5664050574       14.6421768881       12.9765975355
 Si         3.2795287242       12.8904823924        2.9023792979
 Si        13.3763107856       18.8416182877        3.5781122330
 Si        16.8245588270        3.3779955098       14.8635146773
 Si         4.8763232968       20.0058719146       17.4329056347
 Si         1.2030829790        2.9469883516        8.7797059429
 Si         4.1633872026        8.7788577777       18.0999634419
 Si         6.5934399022       18.1526954229        2.4439699791
 Si         2.3033893600        2.9912160572        1.9287666783
 Si         1.6130330766       12.0451741862        0.3199541001
 Si        16.5761181555        1.1667090314        0.0714518088
 Si        18.5339022180       16.9706545788        2.4869727635
 Si        12.1132532169       14.4491423674       15.6258085554
 Si         3.1423683174        4.1982118308       13.1022143227
 Si         6.8278697938        9.9620018373       -0.3712117217
 Si         1.6067780639        3.2474606555        5.6901290707
 Si        12.0307952328        2.1247631457        2.6558350744
 Si        19.1398554790       19.7197770241        4.0630255597
 Si         3.9914540230       13.1847900775       18.0919071158
 Se         5.1898695063        9.5166763064       12.9985053916
 Se         7.8271481586        7.2282990688        6.4226324913
 Se         5.1937630577        4.0007597288        8.2490908629
 Se         7.8271574570        6.4364499942       11.0744571516
 Se        10.1370964512        4.1217449666        8.7315307794
 Se        14.0458337493        5.1744809635        9.7772426448
 Se         4.7318551017       13.0190801807        9.1697051901
 Se         6.9257178533       11.5444533875        5.7224088170
 Se         5.0346786932        8.5045677965        8.8909414572
 Se         9.3018093788       10.1629071187       12.2943690712
 Se        11.3104246330       10.0720406858        4.8728603778
 Se        11.1099057043        8.2363927044        9.1258915001
 Se        12.2911713705        6.6126569320       13.0353975306
 Se        10.0791315782        7.4870383867       16.5472276191
 Se        13.6621516112        6.2759915186        5.7850112919
 Se        15.6558111665        8.5348470363       11.4429404943
 Se         9.8934763264       14.6683574691        3.8194726620
 Se         7.2642001790       16.0991618210        7.6215244282
 Se         9.1286424706       14.8316897396       11.4166152407
 Se        11.3869304093       11.0544225605        0.6770017423
 Se        10.1560519276       12.4392796301        8.2457661047
 Se        12.9946074845       11.9541704796       11.5099130249
 Se         7.8437516542       12.3671736235       15.5756229068
 Se        15.1199557826        9.2631396847        2.8471648553
 Se        14.5472581092       10.2401119462        7.7371897410
 Se        17.0949427791       13.2977075715       10.4979661129
 Se        12.3014775895       10.2023535236       16.0301307872
 Se        18.1512321556        7.5289483211        7.7493434881
 Se        10.5080064827       17.5830931019        8.4284672570
 Se        13.6693809278       16.0224932740       12.0853742874
 Se        13.6850106981       13.3238469263        3.9412564300
 Se        13.4917092460       14.7924245683        8.1022817923
 Se        17.0823098112       12.3135767251        4.5099748668
 Cd         5.8680195398        5.4258876406        6.2691475945
 Cd         9.0486332870        6.5996687875        8.7027121792
 Cd         3.3723168951        8.2674455073       11.2125768139
 Cd         7.8228356279        6.3491870043       16.2229945061
 Cd        12.6500422411        4.5611851187        7.6613009849
 Cd         7.6182873290        3.3495313052        8.8307923583
 Cd         5.1221452017       10.8254601444        7.5752001100
 Cd         6.5904535874       13.5922388922        7.0992564007
 Cd         6.7151664111        8.8592455033       10.9348712457
 Cd        10.0191133472        9.1962481082       18.6472708369
 Cd         9.4245098725        8.2875781186        4.3462142004
 Cd        12.5011582708        8.5282243958        6.6708537673
 Cd         9.9575946857        7.4471029175       12.2590082157
 Cd        13.5736378778        7.9345833597       15.1714615205
 Cd        15.9637741058        6.1222401910        7.8245087537
 Cd        13.3433799938        7.6097913504       10.4285749532
 Cd         9.6080219386       15.0916404947        8.5266107303
 Cd         9.1433533301       13.8816967466       13.9468711790
 Cd         6.6731400695       16.6368169276       15.3409278939
 Cd         8.2908866009       15.1722977921        1.7334585996
 Cd        13.0811753115       12.2787760180        8.3270289509
 Cd        10.7452916625       10.7644274672       10.3186518036
 Cd        11.8818747698       11.2835285347       13.7624481063
 Cd        12.6274904973        9.5571306106        2.3884473736
 Cd        14.9360110050       10.9584219135        5.1274599857
 Cd        15.0158332739       14.7194695357       10.2254141864
 Cd        16.5996418701       10.9673742942       11.5241039976
 Cd        18.0153800389        7.5920885440       10.5519787639
 Cd        12.2180947794       15.1196420913        2.5820413157
 Cd        12.0631820106       17.2108475880       10.3597387255
 Cd        14.8937745091       14.3594605273        5.9920725357
 Cd        11.6821227237       14.2581858490       11.9010997175
 Cd        19.1216564722       11.3019819277        5.6722086362
