417
 i =     6800, time =    13600.000, E =     -8967.2290244522
  O        14.2944924732        2.3160498350        9.0290170028
  O        15.5458846401        1.2690379374        5.4606608639
  O         9.4906743982       17.1904341360       17.2245061047
  O         5.9648245275       11.0428258641        0.8331865355
  O         2.5749753876        6.2724507892       10.4712408878
  O         1.7324351056        4.8034358255       12.6441367764
  O        16.4034672875        6.3375316697        2.9652119025
  O         4.7512414972       15.7335399132       14.4865598731
  O        15.0665310991       18.9943446176       16.4270706594
  O        12.9509834740        3.0339528212        6.3127657291
  O        11.5320873357        2.2910384467        1.0680508647
  O        12.9604341487       19.9019090394        5.1289297642
  O        11.6730052202        7.3476244062        1.4592072499
  O         4.7302419178       19.0707677880       -0.9048195167
  O         6.6141605303        4.0188763772        4.6996103910
  O         2.7540150359        1.9560039085        5.9448372485
  O        19.1214592905       15.9354469417        3.4367536571
  O        14.4064509795       19.8675053832       12.5891815191
  O        18.2045116570       21.1079249366        3.4201070245
  O         6.3095084952        5.1831738650       15.6856965117
  O         1.9782698830       17.7903832303       10.7872731118
  O        16.6677908680        3.0213301691       10.0128926831
  O        19.6704172550       11.6042416073        7.7227782456
  O         2.7865931701        3.1635988324        0.6534368080
  O         5.4645923655        9.4882047614       18.0170202686
  O        17.2901623241       13.5881705218        1.2736233539
  O         3.4027032956       10.2406674171        6.4800686430
  O        18.2384712101       20.0773424400        5.9259088450
  O         0.4365024279        8.4579401421       12.8042159206
  O        18.0660042626       12.6602345873       18.1896876225
  O        15.4040881287       16.4331450978       16.1584883517
  O         4.3789729856        6.4291062081        4.9500066876
  O        12.6922433410       20.1052852184        7.8623706839
  O         3.7368548296       19.5761469193       11.6956706495
  O         6.7522510020        8.7671204425        0.7480657312
  O         3.7284414455       19.3534123521        4.6216638460
  O         0.6084514362       11.1563026301       12.7777860525
  O         9.4409995182       19.1403304906        4.6807471473
  O        12.5457433836       19.9821668461        2.5905274960
  O        18.6211215671        6.6394351657       14.5187041934
  O         9.9010094640        6.3455832917        3.3592743067
  O         2.4618932001        7.2487226562        6.5521389356
  O         9.6268704876       19.9298651465        0.4014592529
  O         2.4247874903       18.9883358151        0.6262506641
  O         0.3577263635       14.7589780215        6.2848475851
  O        19.6775444438        8.2048562687       -0.4394176876
  O         3.0888710850        9.3278262717       16.8876934740
  O         2.6262333016        4.6255992981        5.7126715161
  O         2.1430521102       15.7084380632       13.6390832413
  O         3.0589010048       19.6391646571       16.5348215935
  O         1.9064951106       10.7526458448       15.0877723239
  O        17.1373382713        4.1952023927       16.2808435444
  O        18.6810053914        5.7971949888       -0.6375523268
  O         5.0728314885       13.5346489263       19.5295086952
  O         2.9779904441       17.1191119631       17.0501172952
  O         8.0807854826        5.1705375179       18.3891604395
  O        16.9457410447       17.3849695506        9.2265968823
  O         6.7447519323        6.7948118700        2.3974267714
  O        18.8263843988       17.4563989939        1.2257270798
  O         7.5726731085       18.4613468744       18.7037195505
  O        16.6166141101       11.3680208263       13.8480263925
  O        18.8592184399       17.1845049484        7.4456135053
  O        19.7919780311        3.0397113003        5.1423485112
  O        12.8252368161        2.5597931357       12.4941395231
  O         5.0536614975       18.7381265356        1.6379672902
  O         7.0066592929       16.2919167777       17.2519617908
  O         3.0364065272       17.8708056215       14.4537491509
  O         7.9087175154       10.4423539565       18.2242300517
  O        13.4455820102       14.6833886899       16.0637277422
  O         5.9269093947        1.8943042931       11.5270186120
  O        11.3066602183       16.0299324322       15.7859165512
  O         9.6525720520        3.1387639918       -0.4910350293
  O        15.4104027782       11.5605170224       18.5354315132
  O        18.9147569526        5.7509883539        3.6266752186
  O        10.1411182635        5.2430086112        0.8245538216
  O        19.7580015217       20.1624242571       13.5700106100
  O        18.3801640244       15.2623994171       18.8669312135
  O         5.7501803930        1.6493021663        5.2104382672
  O        13.8673787890        1.7777933710       17.3976835017
  O        16.2784923594       19.0892332868        1.0379550330
  O         7.8530174566        9.1858695046        3.1322672393
  O         6.2684877652       18.6306442847        4.0876908065
  O        16.9746377309        4.1948443152        4.6326206088
  O        18.8630646557       11.8213077374       15.0775061141
  O        11.1953341740       13.6511150480       17.2300107311
  O         4.3632203784       12.6044213157       16.9807271950
  O        20.0081797984        2.4757993056        1.6689113958
  O        12.9235014920       17.4278754322       -0.6939680736
  O         1.4558278338        3.9427285843       10.2000913738
  O        20.0672821849       10.6119623641        0.7211237503
  O         7.0994881175       18.6768672416       14.6169039893
  O         1.5605589556       13.1879611960       14.1843541465
  O         4.3190791650        4.6438890257       18.3652951797
  O         0.9658820478        8.2662887318       15.5704907021
  O         6.4398159576       16.6371125070        2.5759681012
  O        14.4584900626        5.7468086048       19.2962666162
  O         2.4083270088        3.8606792002       14.9133603950
  O        18.1093658897        2.7561415753       14.3670629999
  O        19.5576194675       15.0368424335        8.8748756031
  O         4.6459715105       17.6665471613        9.8201510828
  O         0.8124626207       18.1101541134       15.7588772393
  O        17.7528648456       10.1371282759       18.7816708279
  O        15.9739667268       13.9053358002       16.3667812664
  O         5.3040083643        3.1669538389        0.9312297577
  O        18.7226671185       17.7200668727       18.0449618218
  O        17.5839478899       18.0939419757       15.8124353099
  O         1.3699139733       16.2806723845       -0.4601351354
  O        10.0614971525        1.4186168205       14.4339853680
  O         4.1661110509       16.9935473445       12.2687101381
  O        18.0793123990        9.3532743536       14.6080824854
  O        19.9324811974       10.1647667902       17.2798251485
  O        14.8003139792       19.0088824904        9.4696578265
  O        18.3740689714        9.7242263537       10.9870691161
  O         7.5212382871        1.8871865221       14.6670870699
  O        15.5883042617       17.8472843881       14.1116337006
  O         4.0972981324        6.1081123732        1.1857513772
  O         3.3909026401        2.5425882021       12.5725556997
  O         7.7917675229        1.4154034961        9.5882228327
  O         3.3727555735       14.7054602467       18.0158626586
  O         5.7906787697       20.3562517510       16.3269277569
  O        14.7395722839       16.9212788477        1.1893670306
  O        16.6351060828       15.8301665472        7.0172093908
  O        10.5680491318        2.1800754945        3.6862723443
  O         2.0675191868       16.5496995963        7.4757207538
  O         3.7272884350        9.4693908398        3.8463113897
  O         2.9295941995       14.3332860719        3.2409402152
  O        12.6359041572       15.3347726322        0.9615379111
  O         1.9798053661        6.0354474551       18.6650130102
  O        12.4311321043       17.6533856285        3.7826612542
  O         3.1828143170        9.1061353768        0.2063203338
  O         4.3326580510        4.8969089681       13.1854946142
  O         2.1148993887        1.3807998980        9.2285417488
  O        16.0396120693        4.2156531051       13.8243501010
  O         7.2188252202        1.5267061220        0.2261452618
  O         8.6551853672       16.0622960409       -0.0293329579
  O         4.6324936921       12.4038891062        2.5431206489
  O        16.4126749804       18.4436224072        6.8361237204
  O         5.3538806259       18.8977570958        6.7043679036
  O        15.9107884223        4.1401317083        7.6698073988
  O        12.2461988699       20.0760143207       15.5769574606
  O         7.7440648721       18.8587132309        1.8791365646
  O        19.1521684577       15.0527326700       13.0518137403
  O        16.6162036181        1.5407305325        7.8942033227
  O        18.3182174396        2.3942323852       11.8422583198
  O         1.9113284015        4.3720534628        2.8511341107
  O         2.0277735567       11.9199562266        2.3643456024
  O         1.6033920279        9.7590738409       10.6580979892
  O         1.9368312792        6.6570064913        4.0409447840
  O        11.3723020821        1.3473461589       18.0058823398
  O         5.0655732424        1.0425702927       13.8562312937
  O         7.9503144433        3.9401568512        1.3641836779
  O        11.2317773124       13.7163648890       14.5849478050
  O         7.1645842189       -0.5429760984       11.3649412269
  O        19.0465942178        2.1860152367        9.2215621428
  O         4.2449086571        7.2324241617       18.0460964824
  O         6.9080257679        2.1908199518        2.8458572002
  O        10.5115580672       18.2825163970       14.9797314189
  O         4.2255097538        2.2050375174       17.8725871554
  O        11.7933746918       19.4746534236       12.9996176782
  O         8.7334670074       16.2648404147       14.7525443035
  O         2.8797048707        1.8733339324        3.0369065488
  O         3.8045096303       16.8124209568        0.1842398463
  O        18.6392357736       18.6840670523        3.6118080739
  O         7.0735443961       13.2345925290        1.8600497659
  O        17.8217432502        3.9590886366        2.1112809094
  O        15.0868816948        1.9743308908        1.0379320213
  O         1.1951212426       19.8744732431        4.5233878666
  O        20.2546499212        6.7019803535        1.5635887498
  O         8.3893034868        2.0307128769        5.1282523193
  O         9.1865503070        3.7560171678       13.7013490010
  O        21.1848544322       13.7839792889       11.6580107258
  O        12.9437064577        3.3163349784        3.0693539178
  O        14.8158051576       18.7582194976        3.1878261868
  O         2.6141867904       12.2842874056       19.0449322438
  O        16.7494010900       17.0274705785        2.7357668613
  O        17.3735116902       19.7851582196       10.3312812339
  O        14.5988577813       15.2896295374       18.4258891137
  O         8.6606976645        1.6188040538       12.1889454975
  O        15.2065115688        7.2907078373       16.2365080954
  O        16.9033327713       11.0470805282       16.4242152176
  O        16.2572630686       20.7244546819       18.0872061399
  O         1.2732381831        3.6012694225        7.6280818550
  O        16.9801828645       19.9578584314       13.2178132935
  O        15.6919878522        2.0002440530       15.4053531910
  O        10.7983480147        1.5155918648        6.2665649336
  O        11.9984222074        3.3573319001       16.1848570518
  O        16.0221901735       18.0770718197       11.5634354849
  O        17.8512857301        1.6904026449        0.7139195021
  O         1.3260531552        9.9226996186        4.7781029913
  O        19.8537772886       13.4091872337        0.7929859183
  O         3.0650375270       12.0043268856        4.7028264706
  O         9.1093806994        7.7784505734        1.2577110976
  O        19.2389820217        5.9540995810       11.0645781531
  O        12.6766592610       20.1445998059       10.5013694199
  O        19.0863037709       20.1357327112       17.1083963477
 Na        19.2004858689       13.7689340314        2.9006033967
 Na        11.5934103261        4.7158561767        4.4903793027
 Na        14.8212961857        9.0716248235       18.1168293510
 Na         6.3425611807       16.6677183117       11.2866125455
 Na         4.7834524368        8.3610961051        5.8912258625
 Na        17.3104100181       13.8065489888       13.1619404753
 Na         1.5802001148        0.7262917113       11.5087482743
 Na        17.9839619406       13.7956874427        7.5879081896
 Na        17.8512576598       10.5141596640        8.5613886194
 Na         7.9867627203       17.2992792446        4.7413793949
 Na        10.4774437213        5.0988168601       15.1514779391
 Na         1.7646773011        9.7450866664        8.1690038159
 Na         6.3916483678        6.0701569479        0.2651425659
 Na        10.2386026038       18.2300918154        2.6157314467
 Na        12.6854466805       17.8093951744       16.5981936205
 Na        10.3686521641        1.0941060230        9.1959232010
 Na         8.0548987494        5.2648495274        3.7434328122
 Na        18.3406033466       14.2032130570       16.2954429691
 Na        13.5038631252        3.4234560263       14.4078139865
 Na         5.8474054888       10.5027663908        3.5932510135
 Na        16.3710942691       11.3704940808        1.7008469489
 Na         0.2683487929       12.9823225865        9.6393041203
 Na         6.8550395199       18.7396130184        8.8108745634
 Na        13.8436636132        3.8006582992        0.8380786522
 Na        18.3995694786       15.7631516957       10.6868234358
 Na         4.2092231311       17.1282283714        7.6778876690
 Na        15.7199094406        7.6902648542        4.8250410540
 Na         5.0976143750        6.7682448566       14.6263320141
 Na        12.3300606425        6.5309149853       18.5572637212
 Na        19.8839772726       19.7081350942        0.4710186336
 Na        13.3966694349       19.2968987611       19.6881050532
 Na        11.3214007255       17.6435447163        5.9555115529
 Na         2.2960185683        5.6515539777        8.2758973819
 Na         8.8246886632        9.8260223185        7.3811888158
 Na         9.4708959343       13.0199528027        5.6404983368
 Na         2.0164082109       13.0673518323        6.6166346075
 Na         3.7443288209       13.7525653829       15.2329235416
 Na         7.5413734023       12.3761172153       10.8302735062
 Na        16.6571169494        6.2470444005        0.5791287111
 Na        20.5923110566       18.6465333387        8.3983135003
 Na        20.1869994534        5.6619367837       15.8933458366
 Na         4.5171777631       15.4782757094        2.0259674739
 Na        10.7736052173       15.5707439642       -0.6554422460
 Na         2.4729341634       15.2378659649        9.8844884528
 Na         1.3062735377        1.9082200629       15.3026015753
 Na        15.5367510160        2.0654753805        3.4029137860
 Na        18.3321886332        4.6742557095       12.9541501437
 Na        13.2607775369       12.9163991741       18.6530258662
 Na         4.8973122477        4.8993047190        3.1787904736
 Na        14.8293727206        3.7331990579        5.4301452472
 Na        15.6447688590       14.8254941366        2.1023744946
 Na        15.9193313326        6.5331295465       14.0594202744
 Na        15.0918511675        5.1144571584       17.2791256741
 Na        19.7203041092        7.9630729616        5.4521108729
 Na         4.3045360100        4.1731427322       16.0933350497
 Na        19.9926925815       17.7214173033       13.3476609708
 Na         2.8713167997       11.6454520551       11.4316463018
 Na        17.4363362480        7.0181855565       16.8325744030
 Na         6.6743272559        4.4431209768       13.3812846476
 Na        18.3424460655        2.9455382140       17.6657923341
 Na         4.1134734581        1.3321593910        7.9946519770
 Na         7.5245125827        3.1660129759       16.7787813268
 Na        10.6128164065        4.0060392672       11.7799404624
 Na         4.4506799666        4.9859677104       10.9364352693
 Na         6.1831246194       14.1587310962       17.4901783001
 Na         8.6892245703       18.0524265117       12.8306945685
 Na         5.1196421929       10.8206318465       15.7799078591
 Na         9.2816910078       12.3986872847       17.4881565927
 Na        13.7046101428        6.5757529489        1.9782302259
 Na         8.1541104732        9.8866480467       15.8723517235
 Na         4.2316367450        7.6960248068        2.4991554417
 Na         2.0985900539        9.3179018847        2.2149302204
 Na        17.8631314973       15.4330112048        5.1663277008
 Na         9.0662046706       11.6485982891        2.3672374244
 Na        14.8229721932       12.1468806502       15.4087878485
 Na        15.0958072181        3.2318866712       11.5766887260
 Na         1.8383091056       15.7772080759        4.5701093140
 Na        18.0537927686        3.8802423036        6.3825388324
 Si        15.7400546939       18.9245799650       12.8836483879
 Si         8.0846405517       16.9678521767       18.1670754611
 Si        18.3141821296        1.5323848086       13.3158022635
 Si        10.2508448290        6.6738853665        1.7675416347
 Si        10.4985071763        1.8297807652       -0.1412993889
 Si         2.8022717240        6.2230871709        5.4061716934
 Si        19.9137559642        6.5916870479       -0.1041715451
 Si         7.5676646739        8.1094240601        2.0139696467
 Si         2.4679399967       18.1650031978       15.9289376225
 Si         3.5701181479        6.0687335065       -0.3325439033
 Si        18.9515430624       18.6684000144       16.7027974051
 Si        16.6378626411       20.0392391288        6.4492712749
 Si        16.8755352194       11.4630101036       18.0081689357
 Si        18.4590739535        2.5417116777        1.9901537036
 Si        20.0110152055       15.8059619098        7.4803526286
 Si        19.2227467246       16.6512624441       -0.2232503545
 Si         8.9234076633        4.4618768906        0.1537424856
 Si        19.1527256531        8.0931183022       14.2980635606
 Si         3.9044111286       18.5646109650        0.4753179301
 Si        14.8870143011       14.9836126282       16.8483995412
 Si        15.6340929670       17.9964832583        2.0397259433
 Si        17.5523636567       10.8308742905       14.9548017373
 Si         3.5768559535       16.5227930769       13.6969461296
 Si        20.3897383671        5.7851521138        2.9755555718
 Si        15.8044166130        2.8290776223        8.5807836411
 Si         6.8805788603        2.6764717425        1.3713171201
 Si         1.3904277050        5.3957598808       11.0552257846
 Si        12.4460232277        1.5400652785        6.3599838462
 Si        17.8886273632        1.9770598154       10.3478126594
 Si        19.3511625076        9.8022756103       18.7715493729
 Si         9.8333293866        1.2395296096        4.9621866438
 Si        13.6687330039       16.2527025576        0.1322538340
 Si         1.6438181785        9.6348965910       16.1864510765
 Si         7.3642828540        1.0247521019       11.1561072361
 Si        16.2742935101       18.6493732500       10.0564240323
 Si        19.7687481363        9.7272231916       11.7494416886
 Si        13.6542540726       20.2071271097        9.1737512990
 Si         2.9359469892       10.2822581796        4.9562972765
 Si         4.1605054455        3.1868781755       -0.2184828093
 Si        15.9971067416       17.8516519333       15.6954275795
 Si         5.7285676265       12.5572188317        1.3609519022
 Si        15.2537938698       20.6089237052       16.7922456578
 Si         4.5572891532        1.3888357357       12.3620627267
 Si         2.8898191976       16.2159243375       18.3709092322
 Si         2.6571027492        1.1531291369        4.5134534334
 Si        12.3395764155        1.9073609444       16.8104584447
 Si         9.8812973811       16.8191289491       15.6604330180
 Si        17.2524917481       17.2332267808        7.5246579797
 Si        18.3424469946       13.7493752979        0.1129412216
 Si         8.8559820228        2.2382603911       13.7334458428
 Si        17.3814134775        5.0829520692        3.3864492318
 Si         6.3799151572       20.0707559645       14.7676588595
 Si        11.1194525080       19.6501494682       14.4978571328
 Si         6.8954108076        2.4776828269        4.4990824496
 Si         3.5661732010       18.0815685563       10.9571763784
 Si         8.0249749777       19.5068999181        0.4279473975
 Si        12.9158523820       20.4213843398       12.1655226702
 Si         5.3131754173       19.4546960190        5.2182760738
 Si         0.8464336096       11.6735171040       14.2320423209
 Si         1.2968400181       14.4094209065       13.0135173816
 Si         3.2551096455       12.7513194605        3.2615230889
 Si        13.2320777852       18.9765166480        3.7658764270
 Si        16.6801403468        3.4105284873       14.9539319745
 Si         4.4799472287       20.0637683194       17.2812869579
 Si         1.2238413209        2.7155519353        9.1917917633
 Si         3.9155317124        8.7988626590       18.2321398754
 Si         6.3318898362       18.1821266248        2.5209342773
 Si         2.0784418859        2.9518075349        2.0948573333
 Si         1.4952463455       12.1038862573        0.8444690101
 Si        16.3072172074        1.2577091037        0.3690712873
 Si        18.4051090811       17.2134523036        2.8216811369
 Si        11.7796939826       14.4231335802       15.9659013343
 Si         2.9948432976        4.0327155237       13.3911627788
 Si         6.5601559215       10.0397581647       -0.2955349685
 Si         1.6841185321        3.2106150967        6.0513976838
 Si        11.8924873965        2.1395203716        2.7347833693
 Si        18.9135552508       20.0831498276        4.4241948303
 Si         3.8155026502       13.1188400874       18.3773892707
 Se         4.8842452917        9.3469685351       13.1074397049
 Se         7.8968610735        6.9733296543        6.7312810323
 Se         5.0950610979        4.0416260226        8.4757817667
 Se         7.9328305348        6.5123759458       11.4601079289
 Se        10.1379847835        4.0613817979        8.8207051053
 Se        13.9491075297        5.4813395249        9.8942218293
 Se         4.8331792168       13.0344720381        9.3459747745
 Se         6.9444188066       11.3975272653        6.1118324712
 Se         5.1574593352        8.3486225928        9.1136360102
 Se         9.1311019887       10.3818029388       12.7565082108
 Se        10.7477518958       10.1985461317        4.8445801209
 Se        10.9386114493        8.5873776704        9.0641509181
 Se        12.3942451582        6.8985160300       13.3495830265
 Se         9.8795843462        7.6446288216       16.3175710232
 Se        13.2524134677        6.5989236274        5.9459304364
 Se        15.5548704863        8.1410505708       11.5680995756
 Se         9.8960892090       15.3362868315        3.7304194743
 Se         7.1800285773       15.9294972028        7.5765843971
 Se         9.1622376612       15.0355562739       11.6827773129
 Se        11.0155414012       11.0944992077        0.6107067276
 Se         9.7670662196       12.5485210289        8.5262733191
 Se        12.9930948576       11.6719512102       11.8102583912
 Se         7.3900412507       12.6124507015       15.4619900131
 Se        14.4774390720        9.5134378507        3.0481822584
 Se        14.1835592593       10.7414128790        7.5175891852
 Se        16.6744612160       13.0463790369       10.4183003613
 Se        12.5967830440       10.4638599257       16.1204366868
 Se        17.7835766281        7.7373358488        7.6404751956
 Se        10.3543365645       17.5629044417        8.6331725605
 Se        13.5078940798       16.1386052048       12.1715223935
 Se        14.1828048740       13.7832245305        4.1032149588
 Se        13.0336703431       14.8706213950        8.2855669017
 Se        17.1998932321       12.5264503384        4.8358283747
 Cd         5.7608935879        5.4028899137        6.3604119607
 Cd         9.2634049175        6.4921313557        8.9371186065
 Cd         3.2038863395        8.2027296947       11.0920745758
 Cd         7.6456683096        6.3811527593       16.5892285470
 Cd        12.5135220849        4.8117922669        7.7538893433
 Cd         7.5760154054        3.4541668883        8.7530503996
 Cd         5.0189504939       10.7750044584        7.9032763344
 Cd         6.0972986760       13.6820744987        7.1758253387
 Cd         6.4786755882        8.7141710052       11.3064643999
 Cd         9.9472789542        9.1718062543       18.6783469038
 Cd         9.0334638402        8.1133059237        4.6667415471
 Cd        12.3717434516        8.9002952684        6.8001814616
 Cd         9.9189779838        7.8614045665       12.9869643281
 Cd        13.5547963349        8.1950163261       15.2203361258
 Cd        15.4933134951        6.4182912626        7.8661672460
 Cd        13.0500556763        7.8592345130       10.6838442060
 Cd         9.3235372561       15.1568820726        9.0789454768
 Cd         8.8014290256       14.1766150801       14.0300154164
 Cd         6.4336505338       16.7097612579       15.2487468101
 Cd         8.0485616779       15.1772795469        1.8524185966
 Cd        12.2663804585       12.2908601192        7.9915480262
 Cd        10.7115475654       10.8063820758       10.7026556792
 Cd        11.2927923781       11.3567457749       14.1980264712
 Cd        11.9536885708        9.5929127141        2.4698198886
 Cd        14.6496035517       11.2692792578        5.0350484832
 Cd        14.6358311987       14.4548247579       10.3184296841
 Cd        16.0614757410       10.7392263041       11.7703296103
 Cd        17.7160886144        7.4035840748       10.3673213710
 Cd        12.3758563824       15.3286647603        3.1002265280
 Cd        12.1589633717       17.1571422581       10.2681490505
 Cd        14.7177710669       14.9916350645        6.3912072197
 Cd        11.7904028674       14.1545925830       12.3647129900
 Cd        19.2097772261       11.3375690711        5.7129838769
