417
 i =     7700, time =    15400.000, E =     -8967.1892795165
  O        14.5768300052        2.0926449536        8.6154504505
  O        16.0115666191        1.1769477837        5.3080092049
  O         9.5298072090       17.5076478090       17.0046255738
  O         6.1244001280       10.6960545890        0.7978889006
  O         2.8001383303        6.4432798623       10.5141888531
  O         1.9922235357        4.7043878264       12.4759996409
  O        16.3318653716        6.0150350397        2.7565551646
  O         5.1463052500       15.7805191866       14.1393162932
  O        15.4192500317       19.4169648729       15.7586118607
  O        13.1106152119        2.6312953089        6.1056675239
  O        11.4928112096        2.0859993842        1.0228021520
  O        13.0223621087       19.5402324891        4.9615746177
  O        11.9836537947        7.2024272838        1.4858369554
  O         4.9594899341       19.0822382554       -0.7928474832
  O         6.6898761820        3.8066137443        4.5451435144
  O         2.7139435941        1.8770932369        5.7760424394
  O        19.4265518084       15.9126388256        3.1878608879
  O        14.6214499511       19.3707816661       12.3673222273
  O        18.1827264332       20.8278944962        3.2040732264
  O         6.8033545124        4.8956941911       15.7244736043
  O         2.1219123649       18.0955822567       10.9178421776
  O        16.6997972228        2.4585994142       10.0748760395
  O        19.7640148856       11.5056433188        7.8018030572
  O         2.9058501140        3.2166302814        0.7541305673
  O         5.5335869710        9.4753030031       17.7579885396
  O        17.4166667606       13.5506148367        1.3032874700
  O         3.3689550017       10.2546394340        6.6247507141
  O        18.6982537698       20.0640931303        5.6449191735
  O         0.5152654447        8.6105921029       12.5855109223
  O        18.1490178693       12.6949922189       18.1211862227
  O        15.8020966520       16.9163287048       16.3237848587
  O         4.7028105228        6.0971031463        4.5967269505
  O        12.8914053107       19.7914821385        7.7049854209
  O         3.8192349166       19.6281001692       11.9914083241
  O         6.9629369139        8.4101947695        0.2676941948
  O         3.8493775952       19.2989257820        4.3518727290
  O         0.9125785604       11.1956914598       12.8720261605
  O         9.3045548660       18.7303447544        4.6830285552
  O        12.7403895621       19.5722229123        2.3665238817
  O        18.6884991709        6.9141883892       14.4018300625
  O        10.2204017624        6.2740251562        3.3030637517
  O         2.8646666914        7.0728322711        6.2688188634
  O         9.7127603160       19.7763215884        0.4271480187
  O         2.8315542308       18.8467584379        0.8198578800
  O         0.9423265171       14.7579327176        6.2158093494
  O        19.3721189234        8.1229056029       -0.6780913593
  O         3.2506374886        9.2938948668       16.6057855278
  O         3.0717728563        4.4706663472        5.6472983987
  O         2.4754419609       15.6923093479       13.5685670121
  O         3.4866451354       19.6025269852       16.5282423396
  O         2.0194724205       11.0302597192       15.1414060235
  O        17.7261842081        4.6239950528       15.8856662310
  O        18.5758308130        5.6379485540       -0.5839088255
  O         4.8588503604       13.3086409079       19.4867151113
  O         3.5560738526       17.0583088791       16.9839567417
  O         8.1115902484        5.0384852004       18.5399144680
  O        17.1853375795       17.2094379152        8.9367767071
  O         7.0249122697        6.6326004766        2.1668005453
  O        19.3068730096       17.5288454810        1.0876840935
  O         7.6828969826       18.2549592064       18.7558195266
  O        16.7676316889       11.6185967045       13.6850516945
  O        19.2409081288       17.1703373480        7.1669113548
  O        20.1851162559        3.3478889024        4.7363640665
  O        13.2697788135        2.3763080982       12.3553611688
  O         5.3594626752       18.2736589162        1.6097491400
  O         7.2388199521       16.0830954300       17.1767547617
  O         3.3222519890       17.8069038051       14.4930204824
  O         8.0268777493       10.3209382396       18.0604194924
  O        13.7336890543       15.2665690459       15.7808400644
  O         6.0784207964        1.5629196954       11.5790297102
  O        11.3391717799       15.9626525307       16.0456498102
  O         9.7375166874        2.9791278311       -0.6435818161
  O        15.6694587833       11.6582828932       18.5342434330
  O        18.8270292914        5.9295576421        3.5555186456
  O        10.3180786191        5.1451949154        0.9113571920
  O        19.8056064593       20.0132443295       13.6460875877
  O        18.5805879717       15.2590929341       18.8921009899
  O         5.8784974596        1.3350439460        5.2680729272
  O        13.8090966576        1.5150483897       17.2317461723
  O        16.4312693414       19.1148862847        0.9888203141
  O         7.8267662471        9.1905192155        2.8121290257
  O         6.3247198464       18.1791331967        4.1945182510
  O        16.8479907409        4.0957933946        4.5046612079
  O        18.9485701432       12.1216884373       15.0894122044
  O        12.0841547426       13.6637129979       17.1191034994
  O         4.6053071156       12.5447346482       16.8371209481
  O        19.9701639876        2.1888155031        1.4380935855
  O        13.1211264693       17.2051800553       -0.8905796347
  O         1.9303984575        4.1043169721        9.8779892933
  O        20.2180044292       10.5896238393        0.4604026549
  O         6.9864014557       18.7858019238       14.4919791991
  O         1.7314958117       13.3663209430       14.1460101781
  O         4.1335094976        4.6388039616       18.3853398638
  O         1.2725147505        8.4402947626       15.0455655674
  O         6.8259783150       16.1829916692        2.6615772878
  O        14.3752899258        5.5597832272       19.1346085292
  O         2.7305913502        3.6384059352       14.7817343888
  O        18.3114186704        2.8260809201       14.1393080969
  O        19.7926012625       14.9611343794        8.8233535458
  O         4.5639146962       18.2785539822        9.6558906608
  O         1.3056440236       18.0766071634       16.0265169125
  O        17.9410099100       10.1534198472       18.5479374281
  O        16.2791059522       14.2722516041       15.8103332415
  O         5.4288585399        3.1398011948        0.9802933386
  O        18.9984799864       17.7568092020       18.0227288808
  O        18.0756430977       18.2862225855       15.7322029862
  O         1.6470182193       16.2354250209       -0.6551541840
  O         9.9148574998        0.8736426664       14.2390618097
  O         4.1895677509       16.9425038991       11.9936164241
  O        18.2319444150        9.5059403610       14.4335212067
  O        20.0527371456       10.0898854240       17.1337482023
  O        15.3350424030       19.1294912208        9.2232165491
  O        18.6244678106       10.1628663287       10.8552044611
  O         7.5120571563        2.0217453406       14.4659302545
  O        16.2847745221       17.6434622977       13.8588680368
  O         4.2258706419        6.2045264536        1.0682187500
  O         3.7422321633        2.7763161532       12.3201322559
  O         7.8317977166        1.1984024288        9.5966593423
  O         3.4769984725       14.7022035836       17.8019997659
  O         5.9716579377       20.5108166940       16.3918905160
  O        14.9694514423       16.7817193984        0.9015261250
  O        16.9987700956       15.5543326791        6.8885694255
  O        10.7012542313        1.3459503742        3.4854310218
  O         2.3501120252       16.4584047684        7.7346109196
  O         4.0207634754        9.6937507834        3.9586920920
  O         3.0125547952       14.1824645626        3.0137535241
  O        13.1471200655       14.9485371284        0.5530210920
  O         1.9232932260        6.2008704953       18.5940213780
  O        12.5020613197       17.3070685226        3.7183535797
  O         3.2745953283        9.1549094071       -0.0364673384
  O         4.6540619185        4.8722126006       13.3798696376
  O         2.1475163159        1.4546168465        9.2498444375
  O        16.0076113772        4.2798666413       13.7158467776
  O         7.2440494850        1.2551293154        0.4442764188
  O         9.0582258133       15.7622798744       -0.3798611252
  O         4.9678288809       12.4615696415        2.5492996409
  O        16.9605822916       18.3428577028        6.5103611152
  O         5.1177918286       18.6303704482        6.6229766022
  O        16.3922058824        3.9074136373        7.7254127494
  O        12.4317523111       20.1887784092       15.2839829219
  O         7.9686950755       18.4625045537        2.0450451250
  O        19.2872283636       14.9574609784       13.0517718169
  O        17.1067894317        1.3395387043        7.6707645462
  O        18.7197893786        2.1499071080       11.6882431884
  O         1.3841876739        4.4520104927        2.3480625043
  O         2.4710735834       11.8778129026        1.9489350781
  O         1.9724202677        9.9717737662       10.8640668120
  O         2.1014049068        6.4241466409        3.8986175441
  O        11.4035010052        1.1566118531       17.8253369101
  O         5.0025156073        1.2474861345       14.0581299992
  O         7.9984097742        3.6732466844        1.4786552371
  O        11.8784557864       13.7799921653       14.4768463262
  O         7.2676240789       -0.9204374232       11.2169751498
  O        19.1686216154        2.6267694472        9.1436440949
  O         4.2963210232        7.1405437047       17.8598776480
  O         6.8285159956        1.9092809313        2.9358041851
  O        11.1087050980       18.1591028090       14.8910900276
  O         4.2471207540        2.1804571839       17.9652824566
  O        12.1135280330       19.3873364964       12.8343353365
  O         9.0354201168       16.4116154031       14.5588291247
  O         2.8407700936        2.2871086823        3.1604986150
  O         4.1284328979       16.5858161558        0.1110097268
  O        18.5470174635       18.4086820205        3.4669504353
  O         7.1730053806       13.0521166597        1.1763136955
  O        17.9778406441        3.9055805550        2.1292809823
  O        15.0429539234        1.9097853554        0.7120240046
  O         1.3215524026       19.7482875649        3.8856932520
  O        20.1070188633        6.9015499122        1.5304181012
  O         8.5970607462        2.0347407277        5.0902862380
  O         9.6597540523        3.4606562613       13.2295906831
  O        21.4579495674       13.8665247317       11.5012535424
  O        12.9703689500        2.9819712263        3.0354278567
  O        14.8786145595       18.3631438608        3.0862913699
  O         2.5180079870       12.3487790143       18.6329270250
  O        16.9936141970       16.7990925481        2.3174803947
  O        18.1306712544       19.5548146962        9.9290238451
  O        14.9931024895       15.2065606906       18.0294140176
  O         8.6249140040        1.2181503384       12.1382842411
  O        15.5327976993        7.2669563473       15.9823994147
  O        16.9895448357       11.1266195626       16.3390647620
  O        16.4441947068       20.5043987305       17.8862986236
  O         1.5370195689        3.5208439044        7.4867536236
  O        17.0040033442       20.1141928983       12.9911549721
  O        15.8811774800        2.6275825283       15.7301897809
  O        10.9089063633        1.0363985159        6.1693044739
  O        12.1791562827        3.4322132370       16.2482180667
  O        16.5710541612       18.0736047689       11.3557675167
  O        17.7325186946        1.9131287024        0.5190256078
  O         1.4278045104        9.9663785272        4.7788808945
  O        19.9860496937       13.2368950182        0.5784720243
  O         3.0885731352       12.0136853494        4.5447343325
  O         9.3126015389        7.5686893508        1.1088548131
  O        19.4798568220        5.7766538482       10.9677050792
  O        12.9451290598       20.0223466431       10.3327310563
  O        19.5573857365       20.1787492240       17.1705248026
 Na        19.8483153323       13.6293059538        2.8812810461
 Na        11.8797970674        4.4081682522        4.3162315778
 Na        15.7871043687        9.0125433979       17.4639484742
 Na         6.2804918967       16.5014847876       11.1005696147
 Na         4.9543727468        8.3356008281        6.1873366178
 Na        17.1807851117       13.8812595039       13.2943764928
 Na         1.7824072099        1.2017095713       11.5381678361
 Na        18.2951959255       13.6921768938        7.7921959717
 Na        17.7927948208       10.7846083672        8.6929767862
 Na         7.9715652494       16.7372625727        4.9612670661
 Na        10.8962335333        4.5196416713       14.8617202690
 Na         2.0754709245        9.9150387929        8.5170923144
 Na         6.2390140758        6.0588371839        0.1824566727
 Na        10.4880492186       17.8324339770        2.7729989158
 Na        13.3003887859       17.6193198449       16.2236970487
 Na         9.8063658887        0.7361591324        8.2844855532
 Na         8.2196699682        5.1677478562        3.5701995543
 Na        18.5451228930       14.2556585310       16.4261427035
 Na        13.9925140088        3.1647556598       14.3852146076
 Na         6.0145768070       10.3379047954        3.3868744763
 Na        16.4341422102       11.5211863293        1.4861084877
 Na         0.8713284037       12.7736461646        9.8831995090
 Na         6.5221702231       18.6389457224        8.4870405690
 Na        13.5875515761        3.6222110579        0.8207563263
 Na        18.4775042768       15.8323726518       10.7057676320
 Na         4.4975715243       16.8184087245        7.8101977409
 Na        16.0017761597        7.4211892620        4.7486807312
 Na         5.0306177715        6.8146232505       14.8593131675
 Na        12.1999834130        6.1704396480       18.5992640125
 Na        20.4107650196       19.7062391301        0.0057636882
 Na        13.2564899594       19.4392926016       19.4002008874
 Na        11.8575612656       16.8357479695        5.8985874953
 Na         2.7500397334        5.6692957338        8.0134705559
 Na         8.6853414885        9.6952528628        7.7025416315
 Na        10.5098092186       12.5489483928        5.3788761056
 Na         2.5065838135       13.1957650715        6.6671022834
 Na         4.0278194801       13.8725992836       14.9923728403
 Na         7.5441950005       12.3811798697       10.8279922979
 Na        16.6358273974        5.3813774688        0.5469580057
 Na        20.5603681828       18.5910102857        8.5864352878
 Na        20.1889495978        5.3044598069       14.6135655010
 Na         4.7165596938       15.1797213968        1.9524585565
 Na        11.2188948974       15.7901182935       -0.8643221655
 Na         2.3328994443       15.5956563511        9.8937146693
 Na         1.4479205979        1.7559489821       15.3478930871
 Na        15.4658328738        2.1554714638        3.4187473129
 Na        18.3199147754        4.4590276285       12.4431946655
 Na        13.5236179484       12.5532069643       18.5851874170
 Na         4.5383894786        4.7894679374        2.7714179113
 Na        15.1840900769        3.6233193994        5.7900500342
 Na        15.8460886066       14.7486562650        1.9782771710
 Na        16.4562116760        6.6852948760       13.9922474561
 Na        15.1873089126        5.3309999337       17.0486346976
 Na        20.3041412511        7.8181673519        5.7856665385
 Na         4.6581191887        3.6767034450       15.8248515939
 Na        20.3363251773       17.8138515215       13.3320501424
 Na         3.2269656366       11.9019150649       11.6266507681
 Na        17.7562516783        6.8910786772       16.7106948279
 Na         7.0360771957        4.4613330586       13.7368882107
 Na        18.5109471202        3.5059881845       17.9441255447
 Na         4.0974560376        1.1994030694        7.9650076204
 Na         7.4648836117        3.1771668812       17.2826181039
 Na        11.5136571248        3.8768089141       11.7447880068
 Na         4.8657826825        5.2406673992       11.1130935371
 Na         6.8448299731       14.0074709031       17.7588745990
 Na         8.7383847713       17.9665114418       12.8867076280
 Na         5.2920328615       10.7078342286       15.9607589407
 Na        10.1089732793       12.7961442864       17.5746110858
 Na        14.3266483314        6.6207450693        2.1470500963
 Na         9.2744286282        9.9467024346       15.6068989604
 Na         4.9706641842        7.5266732969        2.8399030750
 Na         2.1489343909        9.3643311403        2.2248360807
 Na        18.2980373668       15.1922721457        5.1001128323
 Na         8.6610506606       11.2156152282        1.8750897568
 Na        14.9742091169       12.4594562253       15.0232637907
 Na        15.2624476122        3.3020192550       11.6308679323
 Na         1.9313485376       16.2687924498        4.4299340285
 Na        18.2667037560        3.4975757566        6.0399488054
 Si        16.0841502091       18.8200256135       12.6973625951
 Si         8.3086070737       16.8563510889       18.0448490018
 Si        18.4956458266        1.4353809359       13.2759131992
 Si        10.5318226964        6.6027913877        1.7689163465
 Si        10.6077707728        1.6272667333       -0.2507523293
 Si         3.2013494772        6.0356871017        5.1561245349
 Si        19.7969799121        6.6157808484       -0.1294681457
 Si         7.7362082814        7.9932329769        1.7131545282
 Si         2.8867231278       18.1547567309       16.0232942594
 Si         3.5422110557        6.1957472860       -0.4114614283
 Si        19.3248452252       18.7171200505       16.7268622351
 Si        17.0754132655       19.9274824986        6.1821581678
 Si        17.0909173173       11.4747305102       17.9393586239
 Si        18.4050024375        2.4070439524        1.9139709557
 Si        20.2928860196       15.7478972611        7.4674767823
 Si        19.4652208433       16.6660076547       -0.2881277184
 Si         9.0728882005        4.3031468378        0.1984961546
 Si        19.3406651652        8.2947818727       14.0819894698
 Si         4.2007679356       18.2314965436        0.4912088368
 Si        15.2902827423       15.3061025549       16.4299067811
 Si        15.8043675436       17.8117243732        1.7674044880
 Si        17.6909971943       11.0372976726       14.8472672351
 Si         3.9316507548       16.5483720905       13.5445414085
 Si        20.2902002171        5.9191165245        2.8994268741
 Si        16.1665516252        2.4999157634        8.4788020550
 Si         6.8875867942        2.4748032249        1.4424390655
 Si         1.6243840349        5.3865477356       10.8924444117
 Si        12.5294334024        1.1474268847        6.2221332109
 Si        18.1537488683        1.8057165212       10.1805576108
 Si        19.5398363578        9.7420597068       18.6189713495
 Si         9.8356611017        0.8388254124        4.8248489465
 Si        14.0394215818       15.9923494998       -0.2716935822
 Si         1.7606672190        9.6420592825       16.0435283203
 Si         7.4009707141        0.6509282382       11.1001454461
 Si        16.8102820589       18.5335774389        9.7566079624
 Si        20.0271929549        9.9934292392       11.7149161372
 Si        13.9447999194       20.0427336021        8.9873369696
 Si         3.0181068575       10.3755512927        4.9700178617
 Si         4.1988178418        3.2468659866       -0.1714244010
 Si        16.4593801619       18.1237932417       15.4534949975
 Si         5.7993988337       12.3028920084        1.0918289298
 Si        15.3864437152       20.7619542237       16.6663637777
 Si         4.7211976098        1.4680414476       12.4729098529
 Si         3.1628024580       16.1899300462       18.2715799190
 Si         2.7084510270        1.0689445065        4.3289748912
 Si        12.3319863561        1.8962631464       16.5707835919
 Si        10.1305779311       17.0182399658       15.5754685354
 Si        17.5930445324       16.9976048334        7.3034036542
 Si        18.3866996595       13.7018300130        0.0567832114
 Si         8.9312956595        2.0160709015       13.5006398262
 Si        17.4090441974        5.0340247506        3.3640641212
 Si         6.4133218353       20.2481139803       14.8421640666
 Si        11.3183165314       19.5726175813       14.2493862840
 Si         6.9909007797        2.2478373746        4.5372689967
 Si         3.6985822304       18.3163625981       10.9926328972
 Si         8.2078646114       19.2184357805        0.6057238007
 Si        13.2326047587       20.2223487590       11.9688608102
 Si         5.2927734822       19.1673377762        5.1625438452
 Si         0.9830619021       11.9826828507       14.3049457403
 Si         1.5115066243       14.5096701980       12.9121016731
 Si         3.4312624165       12.6773320002        3.1762994642
 Si        13.3384346169       18.6493423475        3.6164183493
 Si        16.9794385617        3.6630999753       14.8257262496
 Si         4.7456528847       20.1016937906       17.4096212781
 Si         1.4423685605        2.8357504283        9.0127832306
 Si         4.0578740414        8.8028141420       18.0385898906
 Si         6.5515831675       17.7962760116        2.6349377929
 Si         1.8955877153        2.9665453820        2.0251901055
 Si         1.6460343215       12.0176542615        0.5552800154
 Si        16.3264012378        1.1485039214        0.1892167644
 Si        18.6028631658       17.1145456072        2.5598864113
 Si        12.2221036708       14.5960602980       15.8749790995
 Si         3.2545389840        4.0322692735       13.3319689518
 Si         6.7035797101        9.8067612346       -0.5546061817
 Si         1.9231185967        3.3533667748        5.8077988604
 Si        12.0721441480        1.7231317963        2.5599384462
 Si        19.0997609839       19.7644257103        4.1107359901
 Si         3.9025960170       13.1280349264       18.1250737068
 Se         4.9583834507        9.7006281813       13.0554575672
 Se         8.0661941492        7.0764596021        6.3065089935
 Se         5.3517720250        4.0892217680        8.3867329961
 Se         8.2473504133        6.5422391895       11.5235177825
 Se        10.2678654232        4.0109563168        8.8731003950
 Se        14.1423331697        5.1350054569        9.7843916831
 Se         4.9641797905       12.9788274806        9.3705322651
 Se         7.0933022133       11.4594031818        5.7448687340
 Se         5.4543293908        8.5893149668        9.2448040599
 Se         9.4841988312       10.3672777551       12.7049998237
 Se        11.3696524931        9.8505800829        4.7653648024
 Se        11.4065069281        8.5105933221        9.0824242951
 Se        12.5833266677        6.5765915995       13.1827645356
 Se        10.3108098282        7.5277388239       16.6551761061
 Se        13.7705624402        6.1538079507        6.1835388979
 Se        15.7756947292        8.3694066024       11.6094239414
 Se         9.9002872124       14.8036663743        3.5846579440
 Se         7.3720462781       15.7923726476        7.7739104581
 Se         9.4218907889       15.2775049904       11.6832920173
 Se        11.0736616482       11.0310166649        0.8317361352
 Se        10.1272231743       12.2223321449        8.5915897849
 Se        13.2393243046       11.8950981063       11.5812749209
 Se         8.0865564702       12.5975899214       15.6998802582
 Se        15.0346737518        9.4899206941        2.9459879198
 Se        14.4956011265       10.5890506638        7.4078092000
 Se        17.0804604420       13.0753045813       10.2768028327
 Se        12.6545861635       10.3471698746       15.8906500479
 Se        17.9471291259        7.8058017705        7.7737253975
 Se        10.4770689546       17.4760373944        8.4344714292
 Se        13.8854672696       16.2213135967       11.7637949450
 Se        13.6002063858       13.4509552706        4.1434559093
 Se        13.4686561478       14.9035695135        8.1811487658
 Se        17.2162736238       12.5799906391        4.9291238224
 Cd         6.1297410330        5.2065548147        6.1068836554
 Cd         9.3616565532        6.5809426095        8.7925227375
 Cd         3.6125529203        8.4165935193       11.2100347597
 Cd         8.1931499203        6.1881237673       16.5014222094
 Cd        12.6756180353        4.1810571785        7.7818060783
 Cd         7.7572146161        3.2990810689        8.8578750327
 Cd         5.1827535631       10.8159384151        7.8149748565
 Cd         6.4357150251       13.5713247284        7.1776357991
 Cd         6.9096698808        8.7371985241       11.5699655888
 Cd         9.9720064965        9.0249200923       18.7951633703
 Cd         9.2678613688        8.2788039152        4.4285461852
 Cd        12.8102918156        8.5619610915        6.5374632964
 Cd        10.4349219763        7.7418944855       12.6961176572
 Cd        13.8263941713        8.0051150629       14.9929305843
 Cd        15.8665607734        6.2804077121        7.8702211140
 Cd        13.4050260912        7.5293615027       10.7474407267
 Cd         9.6484267614       14.9182171919        8.9578628049
 Cd         9.1654632980       14.1207995911       14.1292318896
 Cd         6.8359258078       16.7905849558       15.2453741236
 Cd         8.2685844784       14.9229572339        1.4921652317
 Cd        12.7060804136       12.4472587743        7.9339343552
 Cd        10.9931289180       10.6604387758       10.5751010994
 Cd        11.7222474004       11.5450902426       13.7887040571
 Cd        12.4297416090        9.4613887000        2.2588154909
 Cd        14.7657062627       11.0870081536        4.8473997146
 Cd        14.6532137508       14.0425726244       10.3573781590
 Cd        16.4066494783       10.8785488379       11.6355880605
 Cd        17.9841161224        7.5084490664       10.3898587810
 Cd        12.2417362631       15.1157276754        2.5137194070
 Cd        12.2308164016       16.9786794688        9.9804161429
 Cd        15.0947656874       14.4776274812        6.0532079934
 Cd        11.9938338142       14.6294392950       12.3415019707
 Cd        19.3519171102       11.3740175310        5.7288755218
