417
 i =     9000, time =    18000.000, E =     -8967.2250615315
  O        14.4660255389        2.0690288383        8.6568386121
  O        15.7509813462        0.6485147384        4.9309907463
  O         9.8390051658       17.2236740179       17.0202263642
  O         6.2803732864       10.9572688874        0.6440552639
  O         2.4426888781        6.5245497500       10.2402966066
  O         1.8513749596        4.7047902748       12.3056651799
  O        16.4789336645        6.0093177700        2.3401050219
  O         5.1958794096       15.6982778179       14.5790346541
  O        15.3819508671       19.2191060705       15.9258430645
  O        13.2364530250        2.4427553872        6.1670300123
  O        11.8345887189        2.2694367678        0.7960986013
  O        13.1227724814       19.3848801591        4.9473528328
  O        12.0020306610        7.2511642607        0.8978096949
  O         5.1594479595       19.1815992019       -0.9277082706
  O         6.6940990266        3.9890294403        4.2069145343
  O         2.9411956797        2.1586289840        5.6030795739
  O        19.3428990058       15.7407238965        3.0782520475
  O        14.5638348484       19.6935204271       12.5065084653
  O        18.2393387167       20.6884210248        2.9762714514
  O         6.6094027696        5.6214099820       15.4337468264
  O         2.1388907051       17.5330240821       11.3341581403
  O        16.7337620497        2.6544340478        9.6254387533
  O        19.6702107670       11.7408433043        7.9786720225
  O         2.8820284289        3.1478558606        0.4471989259
  O         5.5642628471        9.5769874470       17.8346436794
  O        17.3448940601       13.3110870646        1.2652139908
  O         3.1613953792       10.3284053880        6.4306500294
  O        18.4376232810       20.0359469047        5.5473504601
  O         0.4377339667        8.6883371365       12.7008694584
  O        18.1084975336       12.5331605722       18.1323597787
  O        15.5973156841       16.7434042100       16.1339830251
  O         4.4316405145        6.4775760002        4.5102895681
  O        12.8935110229       19.5930864020        7.6452809211
  O         3.9416888473       19.5117612822       11.6474650672
  O         6.8899856139        8.5131851975        0.4317263527
  O         3.8983855127       19.4691246442        4.2271473890
  O         0.6296159462       11.4035015917       12.5834441804
  O        10.0158219289       18.9028156588        4.3787342659
  O        12.6808511597       19.7560822082        2.4191563173
  O        18.8347768774        6.7514485941       14.3795594681
  O        10.4856656466        6.3037947303        2.9767596080
  O         2.4848730604        7.1754827657        6.2495402033
  O         9.9081793320       20.0813216067        0.4609096761
  O         2.7785040116       19.0085480533        0.2691568079
  O         0.6254041198       14.8615253935        5.9956223099
  O        19.9129481804        8.2730116190       -0.4587901823
  O         3.2728372198        9.5739589868       16.8333461255
  O         2.6131822829        4.6434028276        5.1696681946
  O         2.8322691690       15.3533544957       13.5812672280
  O         3.4551850705       19.5472940702       16.3963686566
  O         1.9828634446       10.9780768300       14.9519742618
  O        17.3808072835        4.2431630919       15.9079571040
  O        18.7107175927        5.8659864542       -1.0779787908
  O         5.0478859872       13.1601567430       19.4948377854
  O         3.0161232062       16.9313976191       16.8743169875
  O         7.9361328329        4.8892892734       18.2187319959
  O        17.1473697062       17.1316438674        9.0126087304
  O         7.0702554320        6.6868002224        2.1822804022
  O        19.1927393868       17.4144286257        0.9718106215
  O         8.2745893484       18.6048771604       18.3755734343
  O        16.4423116694       11.3786276004       13.8490531480
  O        19.0296267639       17.0996568055        7.2486938716
  O        19.8740889624        2.9092016153        4.9193036997
  O        13.1042988390        2.4226014602       11.9869942938
  O         5.1311676407       18.5598430085        1.5473449384
  O         7.3246715161       16.1987622450       17.4352759320
  O         3.3212897046       17.8877792480       14.4406505137
  O         8.1055938045       10.4087680808       18.0475407490
  O        13.6693639519       14.7994741662       15.5614519472
  O         6.0229534370        1.6953599575       11.4137275932
  O        11.5627171851       16.1819848434       15.3991511256
  O         9.6947977159        3.0799269546       -0.6391258804
  O        15.6100961637       11.4933333180       18.6890040210
  O        18.8992344943        5.7046812387        3.4799466242
  O        10.1033318100        5.4704381497        0.3951137520
  O        19.9841518682       20.1800569238       13.3073244952
  O        18.3646976760       15.1578790134       18.9372207161
  O         6.0640780539        1.6056658884        5.1106932292
  O        13.8409550631        1.7679169147       17.1467015663
  O        16.5243043418       18.7589247287        0.7199711096
  O         7.8242350104        9.2563962706        2.9676290549
  O         6.3586645039       18.6062301835        3.9133660344
  O        16.8923405463        4.2053828861        4.3910657747
  O        18.7991108133       11.9614021933       14.9294349377
  O        11.5603437436       13.9772417733       17.0019029411
  O         4.6993768857       12.6966062456       16.8266927089
  O        20.0476770624        2.3301508470        1.3251671477
  O        13.1782205425       16.9702960203       -0.9779722220
  O         1.4428930651        4.1353151213        9.8132429424
  O        20.0513381792       10.7231802700        0.4679960872
  O         6.9624940972       18.7734577401       14.3828075128
  O         1.3006334878       13.4068488128       14.2521277400
  O         4.3007519468        4.7566927371       18.2255571064
  O         1.3277951999        8.4426985036       15.3240750171
  O         6.7026763091       16.5014951098        2.3544270815
  O        14.5117943793        5.6602685280       18.8721892990
  O         2.8365843374        3.9894127002       14.6574072518
  O        18.1607718097        2.6902200190       13.9247947051
  O        20.3036531628       15.0927601400        8.6360603010
  O         4.3119979537       17.7670247846        9.7609999436
  O         1.1621014311       18.2953279787       15.6324507490
  O        17.9128149901       10.0071161452       18.5541486090
  O        16.3180661326       14.3144443397       15.6222802123
  O         5.5794432378        3.2501482338        0.8132488019
  O        19.1545802740       17.4164985486       17.7017464248
  O        17.8989680280       18.3004413166       15.5948995214
  O         1.5923157203       15.8842815337       -0.5411077106
  O        10.1831524743        1.4737438607       13.9478957458
  O         4.6928619419       16.9362729403       12.3164951028
  O        18.3428405818        9.4868514462       14.6582434173
  O        20.1394059477       10.2598698577       17.1616952258
  O        15.2451422336       18.9964418968        9.0212546406
  O        18.5130256346       10.0284299058       10.7822510066
  O         7.6685217527        2.0199074108       14.5679309749
  O        15.9902971301       17.7036490187       13.8067851069
  O         4.0509852974        6.0556840267        0.9078982629
  O         3.5260201551        2.6356357400       12.1859036640
  O         7.5659090236        1.2425977401        9.3718846984
  O         3.5372912236       14.5772408252       17.8724340906
  O         6.0586681512       20.3593879877       16.2847798173
  O        14.9469350148       16.6488088004        0.9835421198
  O        16.7964555478       15.5661947972        6.7874983501
  O        10.8542208780        1.9131939234        3.4435546424
  O         2.2536954972       16.8443107754        6.8919944054
  O         3.7100802083        9.4836175883        3.8735565475
  O         3.3623045095       14.4244226824        3.1437373759
  O        13.1673992328       14.7667039683        0.5783717604
  O         1.9598111976        6.0708477042       18.3908625681
  O        12.6953760598       17.2539967826        3.4047819611
  O         3.6115426746        9.2758331406        0.3053689596
  O         4.6220442749        4.9939308122       12.8782265272
  O         2.4181040074        1.8837228305        8.7810262613
  O        15.8718095100        4.1762553451       13.5922941914
  O         7.3053079131        1.4241183985        0.0336031224
  O         9.1820514348       16.3229535677        0.1098973459
  O         4.9179138160       12.2514037382        2.5420307303
  O        16.8470912644       18.2681497522        6.6509102801
  O         5.3787982740       18.8371877524        6.3858459542
  O        15.9900415435        3.7946306280        7.3291147300
  O        12.2607679101       20.0967008707       15.4239602159
  O         7.8279223546       18.7052460695        1.6353513296
  O        19.5043911255       15.4327276156       12.9358374049
  O        16.7363294565        1.3779275157        7.3461453369
  O        18.7375203748        2.1804686511       11.3539958577
  O         1.6838427326        4.5245003196        2.2975317049
  O         2.4271886154       12.0308851338        1.9191494953
  O         1.7796313075        9.9407566119       10.7068810017
  O         1.9194784392        6.7884872093        3.5655625484
  O        11.2438975811        1.3406215280       17.6887625756
  O         5.1682591358        1.2590148711       13.8112518079
  O         8.0369896044        3.8413437397        1.2261918739
  O        11.4324125564       13.7444420316       14.4128668202
  O         7.3270956746       -0.7461297197       11.1136143653
  O        19.1759180233        2.5031508809        8.6823023014
  O         4.2719560716        7.3372433738       17.9104398978
  O         7.0512578742        1.8865194224        2.6749776092
  O        10.4422866378       18.3570684663       14.6011323786
  O         4.4106167005        2.3125488222       17.8328858340
  O        12.0754208178       19.4320517148       12.7972416522
  O         8.9354990028       16.3023008965       14.4529551713
  O         2.9099055359        2.2150219192        2.8588337216
  O         4.1520789722       16.7743640683       -0.1590545814
  O        18.8770238404       18.3495454549        3.4752193131
  O         7.3356950580       13.2000510277        1.6237659208
  O        17.6111533104        3.7211797828        1.8120468121
  O        15.0267917461        1.6762440683        0.7372059277
  O         1.3421025546       19.7716366081        4.1773722040
  O        19.9389355865        6.6855948648        1.3356265126
  O         8.7266016910        2.2091402716        4.8756314385
  O         9.1553591913        3.8285131971       13.2542124073
  O        21.4131654685       13.8043961573       11.6304683492
  O        13.2909722796        3.0838710990        2.8525099460
  O        14.9907936556       18.5546169761        2.8963505577
  O         2.6676912920       12.1293873610       18.5985386924
  O        16.9772934559       16.8866661049        2.4976115364
  O        17.9304130584       19.6826116391        9.6716066528
  O        15.0351843967       15.0023386459       18.0204175919
  O         8.5065291022        1.5504044488       11.9863495929
  O        15.0648862271        7.2097887753       15.7047745644
  O        16.8373928291       11.0128464022       16.3789594161
  O        16.2611607453       20.6208984175       17.8723338909
  O         1.4222740222        3.9434551318        7.2788497039
  O        17.2846986509       19.8524298787       12.8404440539
  O        15.7393939734        2.3312617516       15.3916891271
  O        11.0176522055        1.1242423112        6.0153091689
  O        12.1511877811        3.4451383783       16.0861210542
  O        16.4716870891       18.0141646965       11.2569438013
  O        17.8320132049        1.5802561048        0.4464809005
  O         1.1808659416       10.1960644088        4.3300647203
  O        19.9032340765       13.2327064994        0.5784756366
  O         3.0542447798       12.1008982209        4.4920603985
  O         9.4133567210        7.8744775595        1.2045985826
  O        19.2789344489        5.9750672910       11.0652574268
  O        12.9757936879       19.7051519956       10.2139992998
  O        19.2748798317       20.0597999707       17.1838676649
 Na        19.4519961106       13.4846304881        3.1243981153
 Na        12.1049778014        4.8309033007        3.9756742505
 Na        15.1933925069        8.5911248708       17.5517666440
 Na         6.3707617856       16.4359572953       10.6050685907
 Na         4.6941193817        8.3359805460        5.8422118631
 Na        17.4535817632       14.6883014827       13.2499746741
 Na         1.8298321901        1.2696529391       11.0942502389
 Na        18.4377106062       13.7175185316        7.4625998933
 Na        17.6478989689       10.8678760806        8.5039208261
 Na         8.0529836688       17.2666935630        4.7874376993
 Na        10.5680421407        4.6526901914       14.7613960975
 Na         1.9555883106       10.2604987092        8.3769722052
 Na         6.2906938556        6.3234689528       -0.1136487205
 Na        10.5749082351       18.0795421972        2.2818781969
 Na        13.3803159672       17.8337965910       16.2688335415
 Na        10.0078388600        1.1484879095        7.9691957613
 Na         8.4742973814        5.1798395093        3.3343728274
 Na        18.6033812683       14.0705608435       16.1654221330
 Na        13.5592583961        3.5172678524       14.1924774619
 Na         5.7500479438       10.3915015404        3.7025087741
 Na        16.3346262817       11.4386618986        1.5268737322
 Na         0.8225562895       12.9904649729        9.7699126367
 Na         6.7670381591       18.8420336567        8.2300323177
 Na        14.0210485854        3.8350422664        0.7351654660
 Na        19.3703758975       16.3028069812       10.3443471704
 Na         4.2491974115       17.0863881488        7.4880796888
 Na        16.1524652299        6.9586612463        4.5081096154
 Na         5.1086674187        6.9969394509       14.4703328886
 Na        12.2019318878        5.7894634008       18.2494769652
 Na        20.1229036069       19.4586217797        0.3424228691
 Na        13.4038872265       19.4817192868       19.3666436021
 Na        11.5890074338       17.5170166080        5.8148651224
 Na         1.7289860922        6.1783595668        7.9971085374
 Na         8.7188990972        9.9015075787        7.4501595447
 Na        11.1723838840       12.8413268834        5.2262803731
 Na         2.4751172860       13.2907458609        6.7120058910
 Na         3.6059146827       13.9297632493       15.2724282802
 Na         7.5392623350       12.3927948690       10.8289894948
 Na        16.8193922348        5.4566351918        0.0716702324
 Na        20.3305389201       18.9282662220        6.8240712519
 Na        20.6801479796        5.7398212401       15.8682611286
 Na         4.9105688571       15.2009773841        1.6680152636
 Na        11.1413859293       15.4500623788       -0.7665510210
 Na         2.7300448641       15.4282544420       10.2011866369
 Na         2.1499715591        1.6948041860       14.8539559121
 Na        15.4106124826        1.6641110853        3.0266509158
 Na        18.7308558633        5.0653769383       12.9922960822
 Na        13.6010739631       12.7229665639       18.5820306104
 Na         5.3585257421        5.3310733530        2.6242804066
 Na        15.0429035669        3.3132097340        5.2088498893
 Na        15.8496930662       14.7610350243        2.2121530266
 Na        15.7117955105        6.4557523540       13.5824512718
 Na        15.0008966315        4.9717495729       16.8785303699
 Na        19.8101238963        8.2142831681        5.1746829764
 Na         4.6451681776        4.3309088777       16.0377535521
 Na        20.2922640337       17.8265607184       13.2060875761
 Na         3.3561126793       11.8351675331       11.6489967655
 Na        17.3988972652        6.4100727861       16.2338121466
 Na         6.8500396296        4.5799504096       13.4827610793
 Na        18.5358025642        2.7352100647       17.1925917478
 Na         4.2011143678        1.4072440167        7.6023702985
 Na         7.5522684769        2.7992374035       17.1524182408
 Na        11.0902185957        3.6413668460       11.4506767764
 Na         4.8369250369        5.3755962373       10.5603939786
 Na         6.6771474262       13.9868848076       17.6075662722
 Na         8.8353898116       18.1586137910       12.8595578666
 Na         5.2194276476       10.7504976826       15.7642359435
 Na        10.1667323012       12.4292206987       17.0432579238
 Na        14.5176451379        6.9999635762        1.3135836014
 Na         8.9445524420        9.9792281247       15.3482591901
 Na         4.1310101673        7.7725240322        2.5090733480
 Na         2.0246345819        9.3462439368        2.0948330421
 Na        18.1828742663       15.3478931388        4.9555622382
 Na         8.8895727702       11.2778871400        2.4146077133
 Na        14.9114359359       12.4097510513       15.2827119015
 Na        15.2271469254        3.4121854759       11.3413610187
 Na         2.2018332047       15.8260358538        4.2231165643
 Na        18.1847039748        3.3756952598        6.1507549312
 Si        16.0101851708       18.8744049075       12.6366745194
 Si         8.6041688071       16.9558641185       18.0847624548
 Si        18.5956412235        1.4637130069       12.9422732755
 Si        10.6024128853        6.7290671957        1.4338412022
 Si        10.7145727306        1.8689373762       -0.2496320282
 Si         2.8516619279        6.2744925138        4.9638822028
 Si        19.8933691350        6.5819479908       -0.2926123332
 Si         7.7964625261        8.1060806711        1.8336921912
 Si         2.7326531523       18.1364544014       15.8751375820
 Si         3.5300160024        6.1298144452       -0.5431053458
 Si        19.2643730270       18.6412504095       16.5686566021
 Si        16.8064634574       19.7413278682        6.0181765725
 Si        17.0111789409       11.3001808763       18.0163839731
 Si        18.4681287977        2.3763842430        1.7288413740
 Si        20.3725861582       15.8985181438        7.2175375795
 Si        19.4034456117       16.4681900418       -0.4317023902
 Si         8.9374399428        4.4450656048       -0.0672516905
 Si        19.3928536152        8.2462992881       14.2108651670
 Si         4.1928871171       18.4456109571        0.2132160719
 Si        15.1660202071       15.1368659916       16.3526879024
 Si        15.8282151255       17.7482983717        1.7704546396
 Si        17.5375436284       10.8353130370       14.8682131998
 Si         4.0170462923       16.4024255899       13.6803017211
 Si        20.2811262649        5.9003835460        2.6746545749
 Si        16.0081618278        2.5386739978        8.1376078200
 Si         7.0205259897        2.5087590874        1.1881194522
 Si         1.4045124856        5.4352182884       10.8478076881
 Si        12.6790276018        0.9958710892        6.1752578026
 Si        18.1582365599        1.9364184948        9.8543157362
 Si        19.5386318719        9.7852360264       18.6025323636
 Si        10.0718742021        1.1062762433        4.7100658550
 Si        14.0064306896       15.8433807518       -0.2597345878
 Si         1.8949929745        9.7683199063       16.0790246105
 Si         7.3888981367        0.8155934268       10.9300195592
 Si        16.6452755787       18.5547273030        9.6969561807
 Si        19.8683814924        9.9649907530       11.6782436190
 Si        13.8756196697       19.9431759747        8.8680685506
 Si         2.7705005607       10.4362728017        4.8362281857
 Si         4.3058652226        3.3410631314       -0.2752158085
 Si        16.3230838594       17.9563803670       15.4093702823
 Si         5.9773624356       12.3817330895        1.2540561944
 Si        15.3159715794       20.7170691848       16.5531139810
 Si         4.7268394155        1.4303437477       12.2670262446
 Si         3.0276810409       16.0650946403       18.2744493214
 Si         2.7236773523        1.2921598076        4.2071659248
 Si        12.3047427698        1.9540869663       16.5280663979
 Si        10.1040327614       16.9517758052       15.4002641403
 Si        17.3873557372       16.9504539848        7.3139876042
 Si        18.3947353378       13.5610559165        0.1137461370
 Si         8.8935432073        2.3406516744       13.3490609758
 Si        17.4041573175        4.9462608704        3.0861709155
 Si         6.4861163750       20.2092135726       14.6788532856
 Si        11.2214494852       19.6963587399       14.1712014381
 Si         7.1920274394        2.4774180027        4.2798248373
 Si         3.7313904601       17.9570703545       11.2167503955
 Si         8.3362694165       19.5112010933        0.3557746883
 Si        13.1055975628       20.2092934520       11.8002220973
 Si         5.3637080074       19.4572639965        4.9561518691
 Si         0.8076834829       11.8721511968       14.1745680147
 Si         1.4944429601       14.5156326415       12.9781811053
 Si         3.4513174831       12.8323710586        3.0521532639
 Si        13.3802278337       18.6558762825        3.4574459526
 Si        16.8155073414        3.4887463002       14.6451769056
 Si         4.7654452455       20.1396136603       17.2661223955
 Si         1.4123981780        3.0235194821        8.6132779465
 Si         4.0925067682        8.9590648457       18.2144884908
 Si         6.4507196968       18.0498056215        2.3046355968
 Si         1.9969865598        3.0506780853        1.8218181775
 Si         1.6599682114       12.0219861874        0.4871782375
 Si        16.2999028908        0.9627257646        0.1471220095
 Si        18.6372519000       17.0362108541        2.5141396199
 Si        12.0443231315       14.6450752499       15.6799642576
 Si         3.2494652626        4.0756229534       13.0919468585
 Si         6.8113860905        9.8792724941       -0.4902005335
 Si         1.7965349836        3.3457686305        5.7662826617
 Si        12.1800074325        1.9499354092        2.4744803628
 Si        19.1345389070       19.8396583999        4.0621995936
 Si         4.0163810717       13.0589588717       18.2075579448
 Se         4.7831944672        9.3736210715       13.0730864165
 Se         7.7434283812        7.2918465369        6.4119998155
 Se         5.3944625771        4.3726067041        8.0679627498
 Se         8.0815642931        6.3227760109       11.1150889628
 Se        10.2922621899        3.9987412925        8.8310939517
 Se        13.9139716986        5.2964895769        9.8557844090
 Se         4.7309540619       13.0370878234        9.2164193026
 Se         6.9246987018       11.4956846616        5.9367094370
 Se         5.2599428005        8.4690099028        9.0573130334
 Se         9.0208822150       10.2366106403       12.1614726983
 Se        11.3118466954        9.8628580468        4.7641715470
 Se        11.1952860694        8.2478693734        9.2747194494
 Se        12.2524654668        6.5513875401       13.0638383521
 Se        10.5470775511        7.7480539405       16.5518649531
 Se        13.5573605950        6.1179491359        5.9467686903
 Se        15.8209514515        8.6023495968       11.6377471709
 Se        10.0575005428       15.1796765197        3.9226402679
 Se         7.2475933994       16.0361809609        7.3863145002
 Se         9.1536155915       14.7539239515       11.3555220743
 Se        11.1639936843       11.2025362181        0.6548097576
 Se        10.2624740010       12.5040693369        8.2488651197
 Se        13.1134479848       11.7324852814       11.3908746820
 Se         7.7315861634       12.5721995053       15.4279999227
 Se        14.9829363604        9.2225153529        2.9033399042
 Se        14.3626979928       10.3414324423        7.5347744807
 Se        17.0273082112       13.3931742312       10.6089056651
 Se        12.7502741798       10.5403075403       15.9595338481
 Se        17.9339704345        7.3248488663        7.3941897796
 Se        10.2299826697       17.5643880252        8.4677958126
 Se        13.4538049448       16.0263837102       12.1363593365
 Se        14.0107266293       13.4485952108        4.0160522418
 Se        13.4034714890       15.0075537086        8.1484248232
 Se        17.3221736912       12.4113889635        5.0006441135
 Cd         6.1165139545        5.2637177969        5.8751964928
 Cd         9.0496114320        6.3722104128        8.6135664991
 Cd         3.1902613455        8.4408129203       11.0408368614
 Cd         8.1537142899        6.4950410538       16.4246672530
 Cd        12.6520924263        4.0816073339        7.6022459478
 Cd         7.6461158136        3.4242118877        8.8621411196
 Cd         5.2096140123       10.7710925813        7.7642296293
 Cd         6.3206253650       13.7606968313        7.0468640114
 Cd         6.7311032912        8.5687393592       11.3835647989
 Cd        10.1086133111        9.2535715785       18.6325847023
 Cd         9.3984601043        8.1746359901        4.4119231631
 Cd        12.5247973372        8.5972999354        6.8166507503
 Cd        10.2105288241        7.7787619238       12.3166628768
 Cd        13.3374066748        8.0026108066       14.9643812893
 Cd        15.6300564785        6.0087019068        7.8000352955
 Cd        13.5966229499        7.7824016322       10.7014862432
 Cd         9.3428551265       15.1124233592        8.5419088059
 Cd         8.7038629504       14.1586455977       13.9097428103
 Cd         6.7105222807       16.8461818074       15.5090757097
 Cd         8.4158514786       15.1834498995        1.9415071076
 Cd        13.1216534555       12.4642432275        8.3914823796
 Cd        10.7836503157       10.7863226076       10.2739176762
 Cd        11.9324033764       11.5909557019       13.8163069270
 Cd        12.4528640755        9.5798855555        2.1102014791
 Cd        15.2505412086       10.8789324428        5.0352352896
 Cd        14.9399312102       15.0056772306       10.2906152068
 Cd        16.5791406369       11.1505896527       11.6554072017
 Cd        17.9931107043        7.5969857148       10.1316940667
 Cd        12.4769519661       15.0785056623        2.6626438689
 Cd        11.9673880827       17.1480113583       10.2983501912
 Cd        14.9456621887       14.6137323695        6.0914373606
 Cd        11.7182840556       14.0165307915       11.9880232678
 Cd        19.4792494287       11.2548911718        5.8959974282
