417
 i =     6200, time =    12400.000, E =     -8967.2340774281
  O        14.3945920037        2.1721074389        9.1404981786
  O        15.6775305083        1.4333417028        5.2793216539
  O         9.4782217058       17.1728164732       17.0993335443
  O         5.5329561259       10.9566318349        0.9654409761
  O         2.4292441852        6.5705036393       10.4261049925
  O         1.4994838928        4.6908929054       12.3868325618
  O        16.4982684977        6.5098043444        2.2052144081
  O         4.8004250151       15.5722713925       14.2834064015
  O        15.2404296095       18.9566363733       16.3020467819
  O        12.7160449279        2.8504342029        6.3672698723
  O        11.5828034854        2.2891857327        1.1914699142
  O        12.9790197892       19.7715866395        5.1712194854
  O        11.5706767227        7.6025693964        1.2025790191
  O         4.8397831993       19.2201528250       -0.7454405425
  O         6.6902963838        4.0497040798        4.6102795751
  O         2.4787342256        2.1805401193        5.6633281060
  O        19.2063456436       15.9875920313        3.2122445201
  O        14.3466590171       19.7423948695       12.5344632057
  O        18.0750454007       21.0218723377        3.3029138214
  O         6.2094492402        5.0150520458       15.6047061097
  O         1.7223611216       18.0479671334       11.1184901718
  O        16.6730493837        2.9946476749        9.8095489196
  O        19.2098136064       11.8535333169        8.0528553558
  O         2.7970836497        3.0267200734        0.6458435177
  O         5.2007092312        9.6144352858       18.0355802705
  O        17.3378618520       13.5727122193        1.3439099364
  O         2.8973083166       10.5874366155        6.7472243835
  O        18.1704874017       20.1122613327        5.7566221035
  O         0.3569109792        8.5528180822       12.8282433332
  O        17.7212593753       12.8460392631       18.1096554868
  O        16.1504769133       16.5160363410       16.2428435281
  O         4.4024454071        6.6516490331        4.8821176807
  O        12.8398003598       19.7895863821        7.8297043171
  O         3.7186485187       19.6491178048       11.8059083261
  O         6.3011092815        8.4515090192        0.7195343580
  O         3.6024257757       19.4830008952        4.3978870061
  O         0.4547836101       11.3626952882       12.7946233688
  O         9.6642946594       19.0974311801        4.6217937914
  O        12.2725330598       19.8838568229        2.7286926808
  O        18.2273750302        6.9449143780       14.4061291310
  O        10.0377119386        6.6863941330        3.3428103979
  O         2.4426237882        7.1673731313        6.5727152035
  O         9.5762081755       19.9893365616        0.7148665222
  O         2.4332489244       19.2051599670        0.5762584189
  O         0.3586121738       14.8105095326        6.3084402130
  O        19.5336482782        8.3674688420       -0.4928995481
  O         2.8643027345        9.2147180949       16.9162129599
  O         2.7509431481        4.6788501987        5.4898742392
  O         2.2212146079       15.8169338207       13.7537170262
  O         3.1664898786       19.7556330497       16.5068049718
  O         1.6500346905       10.8644797807       15.0874075579
  O        16.9955905602        4.1988746501       16.3941650709
  O        18.4246513037        6.0175817950       -0.6876028393
  O         4.7468769360       13.5052501020       19.5226236029
  O         2.9200708830       17.0642698337       17.0873843887
  O         7.7859178637        5.1137913290       18.6121041522
  O        16.9029243635       17.2955068943        9.0677032416
  O         6.8019173820        6.5075005049        2.3887824598
  O        18.4982690454       17.5826151927        1.0597912981
  O         7.9883211952       18.5412122019       18.6684061381
  O        16.2666794956       11.6333186998       13.8478376802
  O        18.8770290879       17.1463743740        7.3876788044
  O        19.6108544782        3.5060453129        4.9201871446
  O        12.8164021580        2.4387609664       12.4849095366
  O         4.8682570836       18.6587468779        1.8342371732
  O         6.8943182733       16.2886694443       17.5764483384
  O         3.2759484425       17.9259319678       14.5419275733
  O         7.7543045745       10.2507156543       18.8703226784
  O        13.5214002598       15.6441055110       15.9671508627
  O         5.9037344479        1.8287892345       11.5717210269
  O        11.1052188557       16.0256896254       15.4737715503
  O         9.5349336652        3.1421245259       -0.4718368771
  O        15.3277018110       11.5335497729       18.8183129584
  O        18.6851549465        5.8443805928        3.6294057774
  O         9.9176171805        5.4885163265        0.8768872752
  O        19.6731215789       20.2822026682       13.3718033774
  O        18.4073768171       15.3608387471       18.7668055116
  O         5.6929606921        1.5615298844        5.1449724084
  O        13.8512016860        1.4095599700       17.4762171118
  O        16.2261406273       18.9346324201        1.0390412822
  O         7.3103930813        9.1515254052        2.9859863980
  O         6.0439032760       18.4938528516        4.1549692379
  O        16.4109495327        4.9495966149        4.4323893417
  O        18.6004203403       12.1416748045       15.0304749458
  O        11.6929081574       14.1463799502       17.4660683216
  O         4.2058363386       12.9882162665       16.8854348537
  O        19.7937303337        2.7071463058        1.4738871460
  O        12.7850113759       17.4098863773       -0.7097895073
  O         1.4432427054        4.3295843629        9.8171458609
  O        19.9452290643       10.7331772335        0.5238607204
  O         6.9240693352       18.7140996827       14.4622682429
  O         1.3673658254       13.3911317219       14.2554875273
  O         4.0038292957        4.7762553892       18.2985313976
  O         0.8401683013        8.4150903576       15.5352190274
  O         6.4191722995       16.4366418722        2.7438802226
  O        14.2344805822        5.5282066713       19.0975313403
  O         2.5513253362        3.8808642002       14.7979157502
  O        18.0347860098        2.6822123927       14.2946377815
  O        19.8629472815       15.1730544035        8.9418834979
  O         4.1598372391       17.9342365782        9.7589026675
  O         1.0399824509       18.4006145736       15.7476796774
  O        17.6213633154       10.3042537901       18.7952416989
  O        15.5536346686       13.8853348764       16.3718739227
  O         5.4587889748        3.5053136939        0.7719471394
  O        18.6767191750       17.7309251953       17.8355058264
  O        17.8133751187       18.5560644773       15.5570035295
  O         1.2227231552       16.7689167907       -0.2432804519
  O        10.0850685782        1.6212887469       14.4156908126
  O         4.0240781801       17.0266858505       12.1372328921
  O        17.9119344058        9.5808794710       14.5214883359
  O        19.8081113534       10.4169426005       17.3206665715
  O        14.8303167526       18.9936180990        9.4508019063
  O        18.4228018229       10.0489771047       10.8639932730
  O         7.5221394303        2.0139901921       14.7220262768
  O        15.6828305919       17.9178756263       14.0740586375
  O         3.6900266045        6.1029733047        1.1651114536
  O         3.4365473627        2.6778577237       12.5846445073
  O         7.6747500345        1.3466663966        9.5766611670
  O         2.7432904414       14.7557849041       18.3011117547
  O         5.8228671469       20.1917394976       16.4102686201
  O        14.4843775747       16.9677445407        1.3116307793
  O        16.5863103108       15.8184068795        6.8318866002
  O        10.5890827709        2.3113489967        3.7631593283
  O         2.0950992732       16.5959799053        7.3837444660
  O         3.4201279678        9.4745830756        4.2013507146
  O         2.8612010207       14.4031008748        3.3080510708
  O        12.9103997273       14.9939620745        0.7345986686
  O         1.7012138461        6.2279449822       18.5965858913
  O        12.4051211473       17.5063718633        3.8888030773
  O         2.9819124192        8.9924911186        0.2649799257
  O         4.2468691817        5.1193311799       13.0278442788
  O         2.1681271268        1.7916864265        9.2399474162
  O        15.8863473889        4.1484597492       13.8944711943
  O         7.0595928908        1.4585609898        0.2835470873
  O         8.7868663066       15.9456695426        0.0587316101
  O         4.5838372775       12.4435321889        2.6538469518
  O        16.5919853176       18.4327477631        6.7457560347
  O         5.0034187699       19.0283268902        6.6903350777
  O        15.6917060644        4.0399880716        7.5273270096
  O        12.0907458730       19.9323985702       15.6700500152
  O         7.6011483706       18.6485242098        1.8963788620
  O        19.2174115651       15.1412982961       12.7198103610
  O        16.5104492920        1.4865810164        7.7380560926
  O        18.4306876194        2.3271626343       11.6277853934
  O         1.5828597384        4.6246802390        2.5550081604
  O         2.0226164304       12.1290317291        1.9919639908
  O         1.6860677629        9.9385805179       10.9317493513
  O         1.6274949648        6.7320799658        4.0217357346
  O        11.3769499357        1.4176665704       18.1037403501
  O         5.0035533475        1.1738411562       14.0271451301
  O         8.0096014510        3.8420284433        1.5108596146
  O        12.1042357624       13.6609386443       14.7484854649
  O         7.2488578388       -0.6202048780       11.2569423644
  O        19.0193732763        2.3190318750        9.0150088628
  O         4.1932290464        7.1868635455       18.0382617873
  O         6.6458169385        2.1173869777        2.8694271823
  O         9.9836524162       18.3290348562       14.7968376802
  O         4.3006955127        2.2739954572       17.9493843048
  O        11.6869960391       19.4047886132       13.0777973633
  O         8.4537679258       16.1946545394       14.7682216785
  O         2.6864510144        2.2402773329        3.0151246735
  O         3.7570551724       17.0167073623        0.2188247352
  O        18.5408118642       18.5419247314        3.5102920202
  O         6.9706926237       13.1940329817        1.4895271651
  O        17.4842458436        4.0163888084        2.1706414940
  O        14.8475722008        1.8246950685        0.9507390941
  O         1.0493973371       19.7934403357        4.1562083918
  O        19.9363713172        6.9649369165        1.5911199930
  O         8.2991497010        1.9854950605        4.9784945401
  O         9.0883731751        3.9090560867       13.6597487545
  O        21.4731609923       13.9802736481       11.6825386491
  O        12.9907553669        3.2345609192        3.1729875572
  O        14.6424972481       18.9040817189        3.1569735726
  O         2.4436837636       12.1882448458       18.7086368057
  O        16.6224278778       16.9312113534        2.7461971883
  O        17.3841530751       19.7069421290       10.0066458989
  O        14.8383414296       15.5762078227       18.2911455266
  O         8.4759774825        1.6607470429       12.2336919430
  O        14.7987102497        7.1472881438       16.3111830853
  O        16.6845966941       11.0494837508       16.4352669555
  O        16.2695971273       20.5160542989       18.1928039816
  O         1.0248789679        3.7397964902        7.3581460852
  O        16.9391410994       20.0181690700       12.9250744148
  O        15.7234045479        2.1199781738       15.6429711419
  O        10.6913826749        1.3916706723        6.3087811953
  O        12.4371587795        3.3012034835       16.2593298565
  O        16.1695172414       18.0237758858       11.5099290175
  O        17.5998267887        1.8818280178        0.7392726982
  O         0.9390016475        9.9572512311        4.9405552720
  O        19.7505019009       13.3928726256        0.5262247417
  O         2.6247302074       12.0908480065        4.6191795313
  O         8.9230991960        7.8981990839        1.2447394108
  O        19.0517549161        6.0335220166       11.2017849934
  O        12.6982405090       20.0185784174       10.5132895507
  O        19.1352547446       20.3377583430       17.2369909969
 Na        19.5153762307       13.6921278540        2.9004807003
 Na        11.7548067274        4.7614934831        4.3762767375
 Na        14.7446442811        9.3601717477       17.3728374817
 Na         6.2958312330       16.6865780439       11.1898929752
 Na         4.3034844230        8.5883628052        6.3623412430
 Na        17.2097081919       14.1970939553       13.4156609325
 Na         1.7336468879        1.4418716200       11.5241635587
 Na        18.1160286633       13.8157943208        7.6326239223
 Na        17.1701307745       10.5693686708        8.1973673588
 Na         7.9270977361       17.5170560617        5.2812730543
 Na        10.4605856430        4.3252193375       15.5621897700
 Na         1.4204555852       10.1409475612        8.4802134936
 Na         6.0443841849        6.1837714113        0.2023466549
 Na        10.2557081093       18.2965995909        2.3416339244
 Na        12.9613616412       17.7874007881       16.5162381835
 Na         9.9780153793        1.0663313748        8.8691553746
 Na         8.3886057195        5.3238428179        3.5386000972
 Na        18.0112481442       14.3767175532       16.4774008732
 Na        13.5157972538        3.5039638062       14.1881186852
 Na         5.5151638386       10.3061765239        3.7710910787
 Na        16.2310415354       11.0071673300        1.5220758022
 Na         0.2972153216       12.9961837667       10.1149116116
 Na         6.2531451008       18.9941844693        8.8140096464
 Na        13.5922877839        3.6425763610        0.7768888579
 Na        18.6444606870       16.1338534525       10.4928034448
 Na         4.1774916448       16.9460883011        7.5554284469
 Na        15.5858460903        7.1909881811        4.5608948753
 Na         5.1021158333        6.8045878820       14.2607205871
 Na        12.1017452964        6.2451541605       18.7159207973
 Na        19.7338045801       19.6621381433        0.0845120771
 Na        13.2109871142       19.6495291216       19.6047235751
 Na        11.4131703824       17.3437857682        5.8869607164
 Na         2.6000314024        5.7945194161        8.2905882204
 Na         8.9390211377        9.9472794242        7.1644169622
 Na        10.4064441537       12.8534997730        5.0755725696
 Na         2.1148716206       13.2662660325        6.6672951166
 Na         2.8583195653       14.4222989752       15.6601316868
 Na         7.5249250950       12.3830262334       10.8358780462
 Na        16.2771926736        5.5158379935        0.2163600510
 Na        20.6104523045       18.7927019577        8.8149715401
 Na        20.4768162584        6.1136531241       16.0485971402
 Na         4.3199262995       15.4686460834        2.1467091148
 Na        10.8985171801       15.6884021637       -0.4570298986
 Na         2.3941272340       15.7734088691       10.0682367521
 Na         1.6849311116        1.9373909820       15.3463736555
 Na        15.1591864387        1.8554250677        3.1567843739
 Na        18.2860752646        5.0663891337       13.0922673326
 Na        13.4417605475       12.8404269670       18.9261471471
 Na         4.9553585702        5.2385232427        3.1397652564
 Na        14.7031265347        3.7172217819        5.3081780308
 Na        15.5396708339       14.6872687024        1.9607367914
 Na        15.9933780545        6.5912701728       14.0687278047
 Na        14.3401973894        5.0172214268       16.9943427693
 Na        19.6221966740        7.8787785847        5.9136186537
 Na         4.2319168698        3.9215320434       16.0832639970
 Na        20.0088661744       17.8949215537       13.4683214053
 Na         2.9372886713       11.8440930935       11.5134191349
 Na        17.0244165306        6.5037667692       16.7818938957
 Na         6.9084386009        4.3788557007       13.5814331840
 Na        18.2061922299        2.9403888876       18.0547413869
 Na         3.9905151145        1.5249003429        7.5932656718
 Na         6.9726274258        2.9415340898       17.3895224095
 Na        10.8776777354        3.7245842341       12.1064964654
 Na         4.7666825516        5.4436531239       10.8418289597
 Na         6.7908317125       14.0881806907       17.9913203208
 Na         8.3853912953       17.8349608550       12.9702703720
 Na         4.5773742894       11.0320197189       15.8375712039
 Na        10.2619931353       12.2965174172       17.1543668641
 Na        13.9941978185        6.7638981012        1.6578165631
 Na         8.1838509631        9.5475681105       15.1616469439
 Na         3.6132889595        7.9791670073        2.4733090515
 Na         1.4230198254        9.6194397616        2.4512827611
 Na        17.9376551040       15.3656420309        5.0746111153
 Na         8.3893331525       11.1391731212        1.7052750301
 Na        14.3932910214       12.5163832013       15.0491251313
 Na        15.1245498035        3.3011372732       11.8438008536
 Na         1.5447964266       16.4754149743        4.6788890325
 Na        17.8507187347        3.9600888325        6.2833019601
 Si        15.7278738083       18.9289753286       12.8184150997
 Si         8.2302534415       16.9552018912       18.2754103126
 Si        18.2709948897        1.5907655177       13.0905633802
 Si        10.2330045823        6.9111577177        1.7365372970
 Si        10.4577228921        1.8815802239       -0.0153733180
 Si         2.8040661838        6.3257981013        5.2091563595
 Si        19.6864601211        6.7412227451       -0.0846183269
 Si         7.3326614471        7.9376876546        1.8964349937
 Si         2.6727334032       18.2269159294       15.9808754720
 Si         3.3134190544        6.2013451627       -0.4033264933
 Si        19.0317184774       18.8586643837       16.6411700039
 Si        16.5867021381       19.9872800186        6.2942665695
 Si        16.7062465370       11.5062378647       18.0515878096
 Si        18.2164358607        2.6453968859        2.0393438930
 Si        20.0471127237       15.8969038291        7.4748136626
 Si        18.9953324044       16.7737907921       -0.2607098008
 Si         8.8137448643        4.5138903571        0.2529908460
 Si        18.9569085874        8.3858622830       14.2557420587
 Si         3.8841058387       18.6814385700        0.5717433269
 Si        14.9514426590       15.3091098430       16.6966610586
 Si        15.5021970346       17.9666044393        2.0976073036
 Si        17.2469649655       11.0349381417       14.9421838203
 Si         3.6650976979       16.5659826682       13.6510652377
 Si        20.0913708536        5.9522570893        2.9051044680
 Si        15.8181614468        2.7618711056        8.4433257327
 Si         6.7322663404        2.7306762404        1.3892294075
 Si         1.2127367260        5.5308469695       10.9265754537
 Si        12.3648613676        1.2948856368        6.4791304162
 Si        17.9019674200        1.9710136405       10.1167860160
 Si        19.1822943549        9.9161525833       18.7214744263
 Si         9.7782773664        1.2709271570        4.9080004827
 Si        13.6909846281       16.2642020109       -0.0486320153
 Si         1.4874268409        9.7356411438       16.2600262977
 Si         7.3710261927        0.9575718256       11.1008973043
 Si        16.3108516147       18.5550583047        9.9043056675
 Si        19.7449762677        9.9201920010       11.8349789809
 Si        13.6337946579       20.1281979213        9.1932628134
 Si         2.5067655442       10.4383155153        5.1275573063
 Si         4.0800625698        3.3775337243       -0.1921846667
 Si        16.2771493540       17.9666110378       15.5712601128
 Si         5.5185345868       12.5404561937        1.3599375557
 Si        15.3302287013       20.5036474581       16.8348497680
 Si         4.5583661176        1.4569902066       12.4575323348
 Si         2.6679733763       16.3350450244       18.5648890015
 Si         2.4954699217        1.2421613142        4.3129605093
 Si        12.3718104464        1.7732390402       16.7755534705
 Si         9.7124108515       16.8904904221       15.5120178334
 Si        17.2624837603       17.1551812757        7.4414210744
 Si        18.1865564606       13.8041409659        0.0102973939
 Si         8.7996594421        2.3365360468       13.6696404085
 Si        17.1547198863        5.3721330324        3.0977976254
 Si         6.4098858753       20.1629185975       14.7504554568
 Si        10.9605359718       19.6482049675       14.4941060305
 Si         6.8169987864        2.4786023273        4.4991373164
 Si         3.3492753740       18.1783666161       11.0868127716
 Si         7.9422816372       19.5105952201        0.5323814591
 Si        12.8603442777       20.2495861214       12.1712080941
 Si         5.1092153978       19.4294214949        5.1450926913
 Si         0.6827939862       11.9232192457       14.2650502394
 Si         1.3076269525       14.5384797629       12.9669325545
 Si         3.0561594975       12.8719600478        3.1136434491
 Si        13.1185257775       18.9307385692        3.8195979123
 Si        16.6844299569        3.4298706810       15.0823071995
 Si         4.5314349225       20.1631806888       17.3623122413
 Si         1.1608452596        2.9966910322        8.8704355887
 Si         3.7302300009        8.7959098230       18.3170186777
 Si         6.2025901234       17.9998811624        2.5938271981
 Si         1.8582398301        3.1293153225        1.9729362133
 Si         1.4111596085       12.1355872847        0.5091554343
 Si        16.1150302577        1.1186161241        0.4414816326
 Si        18.3142783730       17.1779634025        2.6649201625
 Si        12.0628407219       14.6868488610       15.9970138033
 Si         2.9881627742        4.1325764700       13.2602578068
 Si         6.2774728306        9.8217683477       -0.1307621208
 Si         1.5455624628        3.5630959674        5.7713065244
 Si        11.9053538577        2.0933074278        2.8182675887
 Si        18.7953577781       19.9529927764        4.2842709530
 Si         3.5811833430       13.3242590928       18.2969914418
 Se         4.7502329931        9.6119279871       13.1767297339
 Se         7.8063438383        7.3436497872        6.6328934848
 Se         5.1448508529        4.0734466497        8.3247315450
 Se         7.8245582644        6.5432909265       11.6024621118
 Se         9.9816817240        4.1814700366        9.2589681555
 Se        13.6485830423        5.1202552948        9.8981116078
 Se         4.8920044476       13.4068479153        9.6953431626
 Se         6.7934197656       11.7477823003        6.1140124647
 Se         5.0286327294        8.6726649314        9.1247348074
 Se         9.0063644681       10.2745745397       12.7334581970
 Se        10.7266190766       10.0813127743        4.8064518017
 Se        11.0200540476        8.3415019125        9.3288085100
 Se        12.0891834166        6.5178504349       13.3438856546
 Se         9.8275905414        7.4488141064       16.4864713888
 Se        13.2391397056        6.4633132554        6.0366558100
 Se        15.4750852187        8.4359421126       11.8013343793
 Se         9.7749435182       15.2843999401        3.9338869206
 Se         7.1206146335       16.2580020193        7.8991087735
 Se         9.1058967111       15.0470580623       11.8648954781
 Se        10.9147517686       11.1516662755        0.4613912940
 Se         9.5524945140       12.4446605607        8.2759545100
 Se        12.7359877751       11.9440065226       11.4799139814
 Se         7.4155755603       12.3233722905       15.7304718373
 Se        14.4575927509        9.2910895246        3.1385533138
 Se        13.9966235004       10.6982057747        7.6550412934
 Se        16.8525114316       13.1117418593       10.5320233777
 Se        12.3059525111       10.4243983266       16.0828887418
 Se        17.3842764119        7.6352465356        7.7430171909
 Se        10.3747504236       17.5646336686        8.7438744450
 Se        13.6043894472       16.0572268516       12.2669993948
 Se        13.3640736472       13.4508516542        4.4746945559
 Se        13.0161957415       14.8700479056        8.4062958070
 Se        16.9283708332       12.2522661743        4.9126855747
 Cd         5.8690881655        5.4652237201        6.2440740914
 Cd         8.8475526753        6.7060530871        9.0922694704
 Cd         3.2543076094        8.3535847348       11.3231285640
 Cd         7.6557844826        6.2936012976       16.4698511021
 Cd        12.2808921794        4.5461420957        7.7940049630
 Cd         7.5092104328        3.5180436116        9.0088842573
 Cd         4.9199153356       11.2359481986        7.9370604281
 Cd         6.4882379870       13.9502030042        7.1896241825
 Cd         6.3958659461        8.9062248247       11.3373125610
 Cd         9.8663157647        9.1055148626       18.6553262998
 Cd         8.7742282524        8.3600950706        4.5554344338
 Cd        12.3366992333        8.7265860684        6.8867521868
 Cd         9.8437604907        7.6176650330       12.7479815128
 Cd        13.2551100341        7.8289533487       15.1622700302
 Cd        15.2424419882        6.2681324474        8.0594230887
 Cd        13.2243703030        7.4942152308       10.7812897915
 Cd         9.2175140849       15.1670090370        9.0040025101
 Cd         8.0087697455       14.0710453378       14.0928645844
 Cd         6.2471117142       16.7722528614       15.5202086926
 Cd         7.9689734981       15.1559720506        2.0317565052
 Cd        12.1941893676       12.4594229445        8.4180599849
 Cd        10.4545884890       10.7840552765       10.3057736979
 Cd        11.4646904645       11.1753937162       13.8262798650
 Cd        11.9772358011        9.6493965273        2.3935057130
 Cd        14.5031238066       11.0772062657        5.0706166555
 Cd        14.5673994564       14.4468085208       10.5081127411
 Cd        16.0244824576       10.9153427812       11.6513181645
 Cd        17.8193625646        7.6793009396       10.4393104825
 Cd        12.3441298073       15.3138094173        2.9581213363
 Cd        12.3503770739       16.9872596442       10.2614366931
 Cd        14.6687064345       14.5811195822        6.4391783346
 Cd        11.5916970115       14.2558317377       12.6615517881
 Cd        18.9837508698       11.2629502502        5.9976684426
