417
 i =     9200, time =    18400.000, E =     -8967.2600767217
  O        14.4782217014        2.2215699508        8.6982234184
  O        15.8434798707        1.2053402991        5.1938741835
  O         9.6342089280       17.5265229589       16.8653337749
  O         6.3657323433       11.1353187947        0.4221091796
  O         2.7210310722        6.3259811379       10.3747368774
  O         2.0464763828        4.6583339946       12.4379298019
  O        16.9347984199        6.3476149237        2.1375408153
  O         5.2357701385       15.7044771146       14.2175582021
  O        15.4364007862       19.0969236033       16.0062860035
  O        13.0193415640        2.6122714339        5.8184224612
  O        11.8201639977        2.3553055357        0.8674817640
  O        13.1438253656       19.2841623660        4.8078902509
  O        12.0386718947        7.1499206723        1.3160600060
  O         5.1808225602       19.0405654621       -0.9853199766
  O         6.9212845553        3.9473770817        4.4252128891
  O         2.8294034944        2.1302584326        5.6870924064
  O        19.4108888429       16.0136248999        3.4078116539
  O        14.6915624293       19.8346390540       12.2291330291
  O        18.3406338823       20.9738168405        3.2465585441
  O         6.7804161969        5.5314979393       15.0619871988
  O         1.9741797300       17.7722781827       11.2109154797
  O        16.7533569977        2.8866761414        9.6970285565
  O        19.3153403742       11.4582054338        7.6397336124
  O         3.0019762195        3.1818871387        0.5166002572
  O         5.7987444381        9.4056300192       17.7581256332
  O        17.4504777314       13.7592190038        0.9221291402
  O         3.1266896368       10.4644955290        6.5896709777
  O        18.5549928664       19.9599789504        5.8045191043
  O         0.9612672885        8.6130745803       12.7229496322
  O        18.2235568846       12.7649360437       17.9631475331
  O        15.7278334624       16.7001502923       16.0880667304
  O         4.5916273661        6.4235768844        4.7907858181
  O        13.0373601370       19.7497055271        7.4032132417
  O         3.7868813497       19.6689133192       11.4389573991
  O         7.0276227768        8.6623483641        0.5185701175
  O         4.0614946857       19.5800217939        4.3293753971
  O         0.7956757804       11.1808327369       12.6341780994
  O         9.6239829955       18.9568418941        4.0761215642
  O        12.8063499344       19.8006410231        2.2662357996
  O        18.8370286914        6.7638450813       14.4830150793
  O        10.3372536396        6.3587569805        3.2422736359
  O         2.5610970802        7.1951841569        6.3880500922
  O         9.7359119758       20.0331218902        0.4098002240
  O         2.8861826025       19.2986098918        0.2090689625
  O         0.9327913975       14.6915707376        6.0466627869
  O        19.6539261410        8.1588372938       -0.6590961054
  O         3.4656348005        9.3380784162       16.7233805762
  O         2.6291045009        4.7242186159        5.2716289142
  O         2.8715347196       15.5430090579       13.3854442345
  O         3.4730517198       19.6974300226       16.3227228288
  O         2.2103159150       10.8144281576       14.8782180669
  O        17.1598504464        4.3270615362       16.1338563803
  O        18.9657566316        5.6312504217       -1.0415545276
  O         5.1826994501       13.5315824015       19.4239832466
  O         3.2096561165       17.1117098082       16.9560111786
  O         8.0980102176        5.1122272479       18.2698015019
  O        17.2642257233       17.3356675606        8.9559522761
  O         7.0898412187        6.7415658899        2.3480512854
  O        19.2115581040       17.4134417564        1.0915312461
  O         7.9581462580       18.5200990093       18.6093091368
  O        16.7741647995       11.6067503573       13.8215057434
  O        18.9632298057       16.9955697649        6.9690084426
  O        19.7957378265        3.1099758259        4.8655754606
  O        13.0672136853        2.4948525693       12.2021378645
  O         5.0363616413       18.6019377262        1.7832439915
  O         7.4769655937       16.0099806054       17.4566196015
  O         3.4583147110       17.8555198144       14.4862123810
  O         8.1886392348       10.3804996533       17.9481893316
  O        13.7912502592       14.8005012072       15.5631356137
  O         6.0686887622        1.8108512944       11.3524107227
  O        11.5902780128       16.1837808393       15.7994648322
  O         9.8697219709        3.1876057673       -0.6821175204
  O        15.7753812272       11.6220245785       18.4555262466
  O        19.1464698453        5.8011054436        3.4757114701
  O        10.1104495691        5.3763540614        0.6665461131
  O        19.9354806076       20.2427243414       13.3193716672
  O        18.6456138662       15.4106437628       18.4916121638
  O         6.1838269787        1.5404964527        5.1956358455
  O        13.9064181242        1.5169825031       17.1694100564
  O        16.4900672341       18.7095445652        0.5204217205
  O         7.9652584727        9.4215078715        2.8984818362
  O         6.4420481542       18.5627252684        4.1138200908
  O        16.8003386266        4.7730043779        4.2883707238
  O        19.0963308875       12.0032542055       14.8096688646
  O        11.7912711335       13.8431571559       16.9910756408
  O         4.8434630959       12.8657201909       16.8812019657
  O        20.1294647153        2.3806919670        1.3899326514
  O        13.5470089808       17.3181195037       -0.8869489466
  O         1.8789880670        3.8937880102        9.8657091442
  O        20.2505822848       10.7416811636        0.2144759789
  O         7.3632858491       18.6287662942       14.5778642518
  O         1.9783914096       13.2374325131       13.9997238844
  O         4.3469078041        4.7303185610       18.3916645771
  O         1.3894054889        8.3473402259       15.2460177413
  O         6.6611396213       16.6073657789        2.4259057137
  O        14.5874558739        5.3411702758       18.9697609796
  O         2.9975417904        3.9675714035       14.7971835368
  O        18.2454774627        2.8654460620       14.1757142898
  O        20.1135018994       15.0234652521        8.6741560253
  O         4.3851254689       17.5462785358        9.6540929041
  O         1.2581657778       18.3890468591       15.6281820068
  O        17.9877709271       10.2183254406       18.6607281853
  O        16.3538822147       14.1822710619       15.6275471211
  O         5.5946552718        3.3551761560        0.8485337609
  O        19.2927851343       17.9621104096       17.8487984736
  O        17.9824165151       18.1107271215       15.5639385000
  O         1.6483379101       16.3578704392       -0.4576660054
  O        10.2226527071        1.4304949909       14.1271561528
  O         4.6360550615       17.3030844695       12.1574061559
  O        18.3721661992        9.3975566592       14.4675534504
  O        20.3077916273       10.1632982458       17.0963850794
  O        15.0964469907       19.0097920428        9.0577535177
  O        18.7179451521        9.7810052354       10.8132161819
  O         7.5538163794        1.9378206777       14.3623264400
  O        15.9121764492       17.8403117763       13.8036716897
  O         4.2669816760        6.2627050208        0.9789502801
  O         3.7051561817        2.5596436479       12.6255656363
  O         7.8387553950        1.2856272147        9.4108517728
  O         3.3692073846       14.7135092125       17.8850973703
  O         6.0856609601       20.3175238501       16.2246416795
  O        15.1822574557       16.3992792839        1.0449991371
  O        16.6403610183       15.6283244734        6.9597220486
  O        11.0034266500        1.9362834195        3.4561340181
  O         2.2378629170       16.8650545202        7.0649764893
  O         3.9905676377        9.3721241420        4.1028284242
  O         3.1869647743       14.3467422655        3.0657050041
  O        13.1580643333       14.8715926075        0.3088947428
  O         2.1566621406        6.1093967379       18.3544126280
  O        12.3508464049       17.4120210685        3.2174567164
  O         3.6478643719        9.1720002681        0.0704855063
  O         4.7267582057        5.0210246761       12.8348319213
  O         2.1667643353        1.3748804048        8.8482896346
  O        15.9475933257        4.3771059626       13.8228123487
  O         7.3243985271        1.6684793277        0.0010794111
  O         9.3893188836       16.2563822034       -0.0366553503
  O         5.0679836762       12.4383024716        2.4817847367
  O        16.5999827358       18.2583515190        6.4824361862
  O         5.4133743244       18.8004333437        6.5929128582
  O        16.0498880153        3.8199340408        7.2135390222
  O        12.2699269541       19.8905046824       15.4483544154
  O         7.7572747574       18.8525171654        1.7416359793
  O        19.6171484940       15.1505972615       13.1961617118
  O        16.8613876725        1.2391293973        7.6851883341
  O        18.4763246851        2.3304912240       11.6568371098
  O         1.8468561380        4.5393735894        2.3389334637
  O         2.3047424372       11.9969662312        2.0939272121
  O         1.9814259538        9.8761903653       10.6353826089
  O         2.1306810613        6.7323576507        3.7007002683
  O        11.4142396609        1.3785238169       17.8059199579
  O         5.2104802205        0.8419087518       13.7002209395
  O         8.1706555155        3.8228674649        1.3278879385
  O        11.5900937393       13.9509094738       14.2608865637
  O         7.2092692346       -0.7394548323       10.9283426093
  O        19.2006284372        2.3141771951        9.1066718991
  O         4.4023610566        7.2022071383       17.8244185717
  O         6.9883531017        1.8777009577        2.7072003291
  O        10.6137540665       18.1346748645       14.4569821906
  O         4.5955180014        2.1998635085       17.9108833959
  O        12.0723056944       19.4390801297       12.6645700364
  O         9.1531673470       16.0696600419       14.5838142988
  O         2.9403008987        2.1974839245        3.0572044936
  O         4.1486011135       16.7989643166        0.0419857967
  O        18.7500664269       18.5874988321        3.5772936078
  O         7.5180136841       13.2703878969        1.3794763554
  O        17.9088863180        3.8550453934        1.9783536140
  O        15.2222726416        1.5804697206        0.8033010017
  O         1.3957188356       19.8540645479        4.2270847193
  O        20.3892412028        6.7730835016        1.2678071321
  O         8.8004726990        2.0727785632        4.8225543849
  O         9.1897169025        3.5499457076       13.0577843851
  O        21.2711224984       14.0465010739       11.3230673132
  O        13.4015870465        3.1280208652        2.7801055326
  O        14.8627754303       18.4342859381        2.7073172319
  O         2.9148312368       12.3128889836       18.8602056262
  O        17.0730215837       17.0158179090        2.5481269145
  O        17.7585575150       19.6772413001       10.0266241218
  O        14.9969717613       15.1757086688       17.9024229045
  O         8.6826249902        1.1515517746       11.9886387577
  O        15.0285029554        7.3362296205       15.7506033129
  O        17.2507763580       10.7141373428       16.3238732609
  O        16.3905633374       20.6368172331       17.8778047146
  O         1.3873684338        3.6093788164        7.3355646857
  O        17.1429506431       19.9699015359       12.9878585745
  O        15.7503385228        2.2001867410       15.3330422033
  O        10.9938024975        0.9919546376        5.9413402312
  O        12.3156134733        3.2926967390       15.8397443251
  O        16.4378666425       18.0440763611       11.2454936130
  O        17.9563468365        1.5941894379        0.5195319102
  O         1.4764949960       10.1805658055        4.5967772984
  O        20.1091386650       13.3659863313        0.3686240439
  O         3.4668792477       11.9441830484        4.4607559856
  O         9.3945986592        7.8347209321        1.3101661732
  O        19.5196757999        5.8074018627       11.0113593202
  O        12.9945367309       19.8330690882       10.1806267290
  O        19.2936215722       20.3961607983       16.7721132530
 Na        20.1829391604       14.0526376410        2.6840578599
 Na        12.0157745995        4.8565426260        3.7449745649
 Na        15.3351298785        9.1555452026       16.6749171361
 Na         6.2748910029       16.4598990442       10.3178227897
 Na         4.6116440040        8.3489072038        6.3172726843
 Na        17.4264608554       14.4653188499       13.1168049342
 Na         1.5113060800        0.7363770552       11.1802778947
 Na        18.1576914215       13.7329280823        7.5369904360
 Na        17.3862676473       10.5631758785        8.5600595211
 Na         8.1256537563       17.2295792358        5.1676925777
 Na        10.7692961335        4.6290222617       14.6191936287
 Na         1.4286199265        9.7792756020        8.1884268981
 Na         6.5377329507        6.4714613332       -0.0258313142
 Na        10.2931975429       17.9140017470        2.2244430644
 Na        13.4100139609       17.8395745509       16.3528841571
 Na         9.9650266259        1.0050644513        8.0023945090
 Na         8.4847037620        5.1320962791        3.3691117123
 Na        18.6643458802       13.9616480152       16.1588104556
 Na        13.8040411036        3.6854062460       13.9876779809
 Na         6.0032595008       10.6218115550        3.6289160466
 Na        17.0432049094       11.4337152049        1.4873685475
 Na         0.7813505318       12.8362775820        9.4714491049
 Na         6.4606099133       18.6577988452        8.6422490741
 Na        14.2011327510        3.6272651617        0.7223775044
 Na        19.6840152310       16.0126372577       10.7415153818
 Na         4.3337933296       16.8923481840        7.3432734689
 Na        15.7470538553        6.8826247219        3.9973387350
 Na         5.5468859289        6.9930809167       13.9959299172
 Na        12.3993781533        5.8229326495       18.6748007131
 Na        20.3944691643       20.1576487488       -0.4455923071
 Na        13.4248696320       19.3854604112       19.4559400199
 Na        11.2866277244       17.4433169615        5.1891036001
 Na         1.8702517249        5.9747730502        8.1087478757
 Na         8.8314899628        9.9287310207        7.5895925000
 Na        11.1253426287       12.6449859167        5.2572525884
 Na         2.2875736250       12.9241243429        6.3464186323
 Na         4.0305773917       14.0652798461       15.1219185267
 Na         7.5383292732       12.3783724909       10.8383290553
 Na        16.8247574470        5.4574419220        0.0678353668
 Na        20.6226838401       18.9075688792        7.7150762090
 Na        21.0873379350        5.7841811739       15.5651204038
 Na         4.7010663720       15.4436157026        1.9795525167
 Na        11.4571197702       15.7275529761       -1.1390643236
 Na         3.0136073101       14.9400805726        9.5596930999
 Na         1.8154981022        1.8788463530       14.8714155927
 Na        15.3094619287        1.4666649669        3.0167909182
 Na        18.5697303719        5.0566637813       12.8462918065
 Na        13.5812276096       12.8846590773       18.2715014370
 Na         5.1978349961        5.1210593532        2.7027381859
 Na        15.0728547670        3.3272943339        5.0844990168
 Na        15.8567354894       14.4676340001        2.2022863725
 Na        15.8779726766        6.7745213854       13.6162260589
 Na        14.9269500435        5.3214224112       16.7234018637
 Na        20.0493406306        7.9191254724        5.1668252753
 Na         4.8744577243        4.3919458595       16.0096467755
 Na        20.6095941647       17.9013798853       13.3183824614
 Na         3.3785429202       11.9064974594       11.4099335202
 Na        17.7559239815        6.6495077972       16.5579426086
 Na         6.8541967744        4.2410922854       12.8495843638
 Na        18.3947971383        2.8922842056       17.4551744708
 Na         4.2593577512        1.4417758159        7.9801407751
 Na         7.9822286903        2.9696947616       16.6972859798
 Na        10.9695028330        3.6159109914       11.5038510789
 Na         4.9295188936        5.4733101048       10.5629531000
 Na         6.9567946154       13.8745047137       17.4191570835
 Na         8.4767735585       17.7207476369       12.7123957434
 Na         5.2632878227       10.9804596284       15.7967874057
 Na        10.1752368419       12.3362940655       17.3939537187
 Na        14.6541120327        7.2057767810        1.4647247699
 Na         8.9562904638        9.8113049652       15.3342192040
 Na         4.6711068646        7.9631688985        2.4319536148
 Na         2.4236844752        9.6963582031        1.8414564121
 Na        18.1266363954       15.1997023293        5.0024382713
 Na         9.1658159473       11.5965031192        2.1239429192
 Na        14.9491507038       12.6443673193       14.7113845220
 Na        15.3329363025        3.6543538939       11.4333026099
 Na         1.9642127897       16.6093475977        4.6332741828
 Na        18.0031555949        3.9068676122        6.1108024817
 Si        15.9872228505       18.9108817270       12.5430810440
 Si         8.5695592368       17.0025897897       18.1160149203
 Si        18.5141306462        1.5990677731       13.0716483783
 Si        10.5164573559        6.7200173612        1.6637698950
 Si        10.6790147035        1.8979566935       -0.2216494996
 Si         3.0077583505        6.3118407798        5.1293258185
 Si        20.0449021899        6.5270401178       -0.3523248529
 Si         7.8302737759        8.1277734818        1.8993694879
 Si         2.8602215512       18.2139459776       15.8999111471
 Si         3.6710998056        6.1156242234       -0.4697392004
 Si        19.2663602108       18.8798739573       16.4333789306
 Si        16.8714445063       19.8972732292        6.2004543623
 Si        17.1839831527       11.4565311876       17.8143133875
 Si        18.5864535588        2.4207912925        1.8630183555
 Si        20.3671297622       15.8549540042        7.2265850352
 Si        19.4451361933       16.7876406785       -0.4525082971
 Si         8.9773561786        4.3928988747        0.0381202942
 Si        19.5067626948        8.1973129728       14.0913609644
 Si         4.2270150732       18.4967909881        0.2793593629
 Si        15.2711701960       15.1223689109       16.3050039874
 Si        15.9362991405       17.6887696283        1.6766639112
 Si        17.8463493350       10.9147198417       14.7975694886
 Si         4.0690292624       16.6102132792       13.5481359327
 Si        20.5708198550        5.9295264032        2.7205395254
 Si        16.0803853555        2.5992566974        8.2418728199
 Si         6.9889475816        2.6704572789        1.2449052895
 Si         1.6878092568        5.2586170471       10.9367194425
 Si        12.6727752120        1.0772074640        5.9060902149
 Si        18.0831734384        1.9179591776       10.1391803505
 Si        19.5757435910        9.7509393251       18.4471017805
 Si        10.0316702241        1.0539497651        4.5199873561
 Si        14.2297470436       16.0223733696       -0.2824056123
 Si         2.0314060555        9.6336812925       16.0146918682
 Si         7.4260674013        0.8193922615       10.9219448372
 Si        16.5278651881       18.5860390943        9.6666610475
 Si        20.1075716589        9.8702316776       11.5978647011
 Si        13.8986880169       20.0696989280        8.7906708918
 Si         3.0560561992       10.3649936301        4.9339858211
 Si         4.3908269242        3.2545355448       -0.3022443775
 Si        16.3978042613       17.9562611562       15.3458391623
 Si         6.0834645839       12.6576112231        1.0887472613
 Si        15.3781059027       20.6767940908       16.5971808388
 Si         4.7046656365        1.3594712089       12.1947041837
 Si         3.0602041221       16.2350014872       18.3245994277
 Si         2.8595399137        1.2360851846        4.3282201882
 Si        12.4139432757        1.8357850102       16.5002023263
 Si        10.1593142497       16.9405770241       15.4656838245
 Si        17.3468281762       17.0013821804        7.3080190073
 Si        18.5234726894       13.8702910448       -0.1683869211
 Si         8.9028199539        2.0165370887       13.3710412823
 Si        17.6262006969        5.2094872872        2.9904328035
 Si         6.5026434268       19.9647215734       14.6494225909
 Si        11.3319503659       19.5787529991       14.1188521268
 Si         7.1885633396        2.3515400521        4.2866545033
 Si         3.6075555255       18.0254186758       11.0088168220
 Si         8.1409648030       19.6592462795        0.3642864707
 Si        13.1908103270       20.3826694667       11.8187848849
 Si         5.5083189882       19.4046448889        5.1372408078
 Si         1.2265863277       11.8376479613       14.0815392585
 Si         1.6336749391       14.5285230559       12.8203767310
 Si         3.5218004550       12.7811090607        2.9931380445
 Si        13.3180761821       18.6045932569        3.2611184004
 Si        16.7868690700        3.5040065332       14.8692431498
 Si         4.8158135997       20.0767337128       17.2434891267
 Si         1.4028597750        2.7666536447        8.7687062466
 Si         4.2754939515        8.8250586109       18.0954377994
 Si         6.4353892510       18.1958147295        2.4820751562
 Si         2.1364999567        3.0286983168        1.8703172226
 Si         1.7360461030       12.1273219101        0.4335374050
 Si        16.4748144506        0.9592435276        0.1088075047
 Si        18.7314368077       17.2458636991        2.6935941292
 Si        12.1260328621       14.6247744585       15.6703586314
 Si         3.4484721361        4.1750788871       13.2038599805
 Si         6.9292078490        9.9117561787       -0.5683162259
 Si         1.7342505729        3.4259297251        5.6954034539
 Si        12.3084411389        2.0524522401        2.4165577825
 Si        19.1509797233       19.9679699099        4.2198130227
 Si         4.1477459620       13.2844238789       18.2053230473
 Se         4.9590590983        9.7165437989       12.9835753717
 Se         7.9349884371        7.2529455806        6.5000637040
 Se         5.3081374102        3.9466136812        8.1557546189
 Se         8.1730118115        6.5854558382       11.2569383976
 Se        10.3025751808        4.1720299361        8.6704075595
 Se        14.0332244597        5.1922426510        9.3188076342
 Se         5.0198470524       13.0646422800        9.4639693167
 Se         6.8968590420       11.2845154850        6.1165910554
 Se         5.3976429738        8.4858398757        9.1267183062
 Se         9.3429995867       10.2202929060       12.1505030223
 Se        11.1835187995        9.7939479261        4.7604768659
 Se        11.4130948386        8.7273318359        8.9064380517
 Se        12.4964098955        6.4813535005       13.0074990636
 Se        10.5276876448        7.3979600317       16.5705698059
 Se        13.5725148311        6.2861679539        5.7807272080
 Se        15.7593062454        8.2890826327       11.2572079795
 Se        10.0021613508       14.8006620042        3.7060863566
 Se         7.1870413173       15.9240133826        7.5052806708
 Se         9.1447623258       15.0532092457       11.4442185018
 Se        11.5620846830       11.0071578124        0.4734814924
 Se        10.1492371941       12.5700412175        8.2118281487
 Se        13.3392580292       12.2432572720       11.3382627379
 Se         7.8514647611       12.4765282237       15.3040874103
 Se        15.0571751191        9.5721723081        3.1173296287
 Se        14.5896574353       10.6959230717        7.5060150333
 Se        17.1314110707       13.1724198923       10.4805004804
 Se        12.4692506701       10.6471430089       15.7620181847
 Se        18.2676689777        7.3617456320        7.4124244217
 Se        10.0950262064       17.6099713757        8.1117120396
 Se        13.6075906673       16.5003484800       11.7934695332
 Se        13.7557694114       13.5853270092        4.0713372968
 Se        13.1975519301       14.9522642820        8.1136211644
 Se        17.6006322846       12.5417061312        4.1495055165
 Cd         6.0075973401        5.2369233219        5.9737643135
 Cd         9.4378792743        6.6859598428        8.7481041671
 Cd         3.5185136707        8.2697042438       11.1807415099
 Cd         8.2844030444        6.2858600825       16.0741366915
 Cd        12.5354378074        4.2471119181        7.2626371317
 Cd         7.7095338424        3.3584269928        8.7425119865
 Cd         4.7707688186       10.9771957744        7.9474634063
 Cd         6.6791703236       13.5201106732        7.3129448064
 Cd         6.9755703768        9.0396782854       11.2639546451
 Cd        10.3528825025        9.0501466616       18.6543118470
 Cd         9.1659860715        8.1373216938        4.4932421530
 Cd        12.8765505131        8.8613470115        6.5963266683
 Cd        10.1203495611        7.6362420183       12.4600517361
 Cd        13.1788558920        8.0183103178       15.0042141560
 Cd        15.8635888168        6.3055512510        7.5305490688
 Cd        13.2857904135        7.3663481540       10.3819970958
 Cd         9.3088023678       15.0636175915        8.6685577640
 Cd         9.2610954421       13.9087289961       13.9185123878
 Cd         6.9504243181       16.5516777514       15.2807823368
 Cd         8.4012016324       15.2715016636        1.7088168247
 Cd        12.8884558916       12.4229729856        8.3962920224
 Cd        11.1519087376       10.9286974213       10.3650747817
 Cd        11.7302271853       11.5818442190       13.5290331488
 Cd        12.4741824957        9.5264969980        2.4746914080
 Cd        15.2977201264       11.4233866429        5.0500630253
 Cd        15.0295277727       14.6405101971       10.2599026914
 Cd        16.5804300476       10.7321417947       11.7544506433
 Cd        18.3531134407        7.5179821992       10.2226616460
 Cd        12.1695915083       14.9076137728        2.3771161889
 Cd        12.1111089048       17.2873833777        9.7001567441
 Cd        14.7932017168       15.0139881317        5.9796081437
 Cd        11.9059238537       14.7202262042       12.1284555990
 Cd        19.1851316322       11.2446377702        5.5787643199
