Created on Wed Nov 29 16:36:58 2017 

        2208 atoms
        2592 bonds
        4560 angles
        7584 dihedrals
        3888 impropers

           6 atom types
           7 bond types
          10 angle types
           9 dihedral types
           3 improper types
           0.000000  58.676224 xlo xhi
           0.000000  58.703816 ylo yhi
           0.000000  58.703569 zlo zhi
          -0.171379  -0.171379  -0.170205 xy xz yz

Masses

    1    12.010700000 # 168
    2    12.010700000 # 2
    3    63.546000000 # 165
    4     1.007940000 # 5
    5    14.006700000 # 40
    6    15.999400000 # 167

Bond Coeffs

    1                       class2        1.485000      360.635220     -919.619811     1367.934469 # 168 2
    2                       class2        1.278000      585.591600    -1493.258580     2221.222138 # 168 167
    3                       class2        1.394000      509.335200    -1298.804760     1931.972080 # 2 2
    4                       class2        1.094000      390.634200     -996.117210     1481.724350 # 2 5
    5                       class2        1.266000      797.814600    -2034.427230     3026.210505 # 2 40
    6                        morse       50.000000        1.451345        1.914000 # 165 167
    7                       class2        2.536000       75.465060     -192.435903      286.248406 # 165 165

Angle Coeffs

    1                       class2      123.490000      111.074462      -89.097370       20.419613 # 167 168 167
    2                       class2      115.098000       79.493057      -63.764634       14.613778 # 2 168 167
    3                       class2      117.711000       57.407656      -46.049029       10.553660 # 168 2 2
    4                       class2      127.050000       53.307109      -42.759813        9.799827 # 2 2 2
    5                       class2      120.350000       36.185527      -29.025892        6.652244 # 5 2 2
    6                       class2      119.000000       47.480016      -38.085663        8.728591 # 40 2 2
    7              cosine/periodic      100.000000               1               4 # 167 165 167
    8                       class2       84.336000       29.351283      -23.543865        5.395856 # 165 165 167
    9                       class2      124.000000       30.933950      -24.813387        5.686809 # 2 40 2
   10                       class2      126.814000       13.740429      -11.021760        2.526001 # 168 167 165

BondBond Coeffs

    1 class2        0.000000        1.278000        1.278000 # 167 168 167
    2 class2        0.000000        1.485000        1.278000 # 2 168 167
    3 class2        0.000000        1.394000        1.485000 # 168 2 2
    4 class2        0.000000        1.394000        1.394000 # 2 2 2
    5 class2        0.000000        1.394000        1.094000 # 5 2 2
    6 class2        0.000000        1.394000        1.266000 # 40 2 2
    7 skip # 167 165 167
    8 class2        0.000000        2.536000        1.914000 # 165 165 167
    9 class2        0.000000        1.266000        1.266000 # 2 40 2
   10 class2        0.000000        1.914000        1.278000 # 168 167 165

BondAngle Coeffs

    1 class2        0.000000        0.000000        1.278000        1.278000 # 167 168 167
    2 class2        0.000000        0.000000        1.485000        1.278000 # 2 168 167
    3 class2        0.000000        0.000000        1.394000        1.485000 # 168 2 2
    4 class2        0.000000        0.000000        1.394000        1.394000 # 2 2 2
    5 class2        0.000000        0.000000        1.394000        1.094000 # 5 2 2
    6 class2        0.000000        0.000000        1.394000        1.266000 # 40 2 2
    7 skip  # 167 165 167
    8 class2        0.000000        0.000000        2.536000        1.914000 # 165 165 167
    9 class2        0.000000        0.000000        1.266000        1.266000 # 2 40 2
   10 class2        0.000000        0.000000        1.914000        1.278000 # 168 167 165

Dihedral Coeffs

    1     4       0.000000     1     0       0.870500     2  -180       0.000000     3     0       0.000000     4  -180 # 167 168 2 2
    2     4       0.000000     1     0       0.000000     2  -180       0.000000     3     0       0.000000     4  -180 # 2 168 167 165
    3     4       0.000000     1     0       2.264000     2  -180       0.000000     3     0       0.000000     4  -180 # 167 168 167 165
    4     4       0.000000     1     0       2.189500     2  -180       0.000000     3     0       0.000000     4  -180 # 2 2 2 2
    5     4       0.000000     1     0       3.158000     2  -180       0.000000     3     0       0.000000     4  -180 # 2 2 2 5
    6     4       0.000000     1     0       7.189500     2  -180       0.000000     3     0       0.000000     4  -180 # 2 2 2 40
    7     4       0.000000     1     0       1.500000     2  -180       0.000000     3     0       0.000000     4  -180 # 2 2 40 2
    8     4       0.000000     1     0       2.986000     2  -180       0.000000     3     0       0.000000     4  -180 # 5 2 2 5
    9     4       0.000000     1     0       0.000000     2  -180       0.000000     3     0       0.304500     4  -180 # 167 165 165 167

Improper Coeffs

    1       13.668602      180.000000  # 167 168 2 167
    2        6.258781      180.000000  # 2 2 168 2
    3        1.366860      180.000000  # 2 2 5 2

Atoms

       1      444        1     0.00000   16.09801    9.96774   45.10870
       2      444        1     0.00000   45.52181   10.05284   15.75692
       3      444        1     0.00000   16.09801   39.40475   15.75692
       4      444        1     0.00000   45.35043   39.31964   45.10870
       5      444        1     0.00000   16.09801   15.64260   39.45027
       6      444        1     0.00000   45.52181   15.72771   10.09848
       7      444        1     0.00000   16.09801   45.07961   10.09848
       8      444        1     0.00000   45.35043   44.99451   39.45027
       9      444        2     0.00000   16.11530    9.94560   43.63290
      10      444        2     0.00000   45.53911   10.03070   14.28111
      11      444        2     0.00000   16.11530   39.38261   14.28111
      12      444        2     0.00000   45.36773   39.29751   43.63290
      13      444        2     0.00000   16.11530   14.16687   39.42385
      14      444        2     0.00000   45.53911   14.25197   10.07206
      15      444        2     0.00000   16.11530   43.60388   10.07206
      16      444        2     0.00000   45.36773   43.51877   39.42385
      17      444        2     0.00000   16.10924   11.15086   42.89939
      18      444        2     0.00000   45.53304   11.23596   13.54761
      19      444        2     0.00000   16.10924   40.58787   13.54761
      20      444        2     0.00000   45.36166   40.50277   42.89939
      21      444        2     0.00000   16.10924   13.42987   40.62698
      22      444        2     0.00000   45.53304   13.51498   11.27519
      23      444        2     0.00000   16.10924   42.86688   11.27519
      24      444        2     0.00000   45.36166   42.78178   40.62698
      25      444        2     0.00000   16.12764   11.06507   41.50871
      26      444        2     0.00000   45.55145   11.15018   12.15692
      27      444        2     0.00000   16.12764   40.50209   12.15692
      28      444        2     0.00000   45.38007   40.41698   41.50871
      29      444        2     0.00000   16.12764   12.03944   40.53716
      30      444        2     0.00000   45.55145   12.12454   11.18538
      31      444        2     0.00000   16.12764   41.47645   11.18538
      32      444        2     0.00000   45.38007   41.39135   40.53716
      33      444        2     0.00000   16.15190    9.85418   40.84360
      34      444        2     0.00000   45.57570    9.93928   11.49181
      35      444        2     0.00000   16.15190   39.29119   11.49181
      36      444        2     0.00000   45.40432   39.20609   40.84360
      37      444        2     0.00000   16.15190   11.37784   39.32435
      38      444        2     0.00000   45.57570   11.46294    9.97256
      39      444        2     0.00000   16.15190   40.81485    9.97256
      40      444        2     0.00000   45.40432   40.72975   39.32435
      41      444        2     0.00000   16.29803    6.35825   34.10178
      42      444        2     0.00000   45.72183    6.44335    4.75000
      43      444        2     0.00000   16.29803   35.79526    4.75000
      44      444        2     0.00000   45.55045   35.71016   34.10178
      45      444        2     0.00000   16.29803    4.64620   35.80888
      46      444        2     0.00000   45.72183    4.73130    6.45710
      47      444        2     0.00000   16.29803   34.08321    6.45710
      48      444        2     0.00000   45.55045   33.99810   35.80888
      49      444        2     0.00000   16.31966    5.36962   33.11087
      50      444        2     0.00000   45.74346    5.45472    3.75908
      51      444        2     0.00000   16.31966   34.80663    3.75908
      52      444        2     0.00000   45.57208   34.72153   33.11087
      53      444        2     0.00000   16.31966    3.65815   34.81738
      54      444        2     0.00000   45.74346    3.74325    5.46560
      55      444        2     0.00000   16.31966   33.09516    5.46560
      56      444        2     0.00000   45.57208   33.01006   34.81738
      57      444        2     0.00000   16.35053    1.59308   32.74632
      58      444        2     0.00000   45.77433    1.67819    3.39453
      59      444        2     0.00000   16.35053   31.03009    3.39453
      60      444        2     0.00000   45.60295   30.94499   32.74632
      61      444        2     0.00000   16.35053    3.30455   31.03981
      62      444        2     0.00000   45.77433    3.38965    1.68802
      63      444        2     0.00000   16.35053   32.74156    1.68802
      64      444        2     0.00000   45.60295   32.65646   31.03981
      65      444        2     0.00000   16.35573    0.60416   31.75511
      66      444        2     0.00000   45.77953    0.68926    2.40332
      67      444        2     0.00000   16.35573   30.04117    2.40332
      68      444        2     0.00000   45.60815   29.95606   31.75511
      69      444        2     0.00000   16.35573    2.31621   30.04801
      70      444        2     0.00000   45.77953    2.40132    0.69622
      71      444        2     0.00000   16.35573   31.75322    0.69622
      72      444        2     0.00000   45.60815   31.66812   30.04801
      73      444        2     0.00000   16.10627   24.85043   55.90634
      74      444        2     0.00000   45.53007   24.93553   26.55456
      75      444        2     0.00000   16.10627   54.28744   26.55456
      76      444        2     0.00000   45.35869   54.20234   55.90634
      77      444        2     0.00000   16.10627   26.39705   54.36420
      78      444        2     0.00000   45.53007   26.48215   25.01242
      79      444        2     0.00000   16.10627   55.83406   25.01242
      80      444        2     0.00000   45.35869   55.74896   54.36420
      81      444        2     0.00000   16.07745   24.12144   54.65244
      82      444        2     0.00000   45.50125   24.20654   25.30065
      83      444        2     0.00000   16.07745   53.55845   25.30065
      84      444        2     0.00000   45.32987   53.47335   54.65244
      85      444        2     0.00000   16.07745   25.14526   53.63158
      86      444        2     0.00000   45.50125   25.23036   24.27980
      87      444        2     0.00000   16.07745   54.58227   24.27980
      88      444        2     0.00000   45.32987   54.49717   53.63158
      89      444        2     0.00000   16.05522   22.73557   54.60841
      90      444        2     0.00000   45.47902   22.82067   25.25662
      91      444        2     0.00000   16.05522   52.17258   25.25662
      92      444        2     0.00000   45.30764   52.08748   54.60841
      93      444        2     0.00000   16.05522   25.10525   52.24559
      94      444        2     0.00000   45.47902   25.19035   22.89380
      95      444        2     0.00000   16.05522   54.54226   22.89380
      96      444        2     0.00000   45.30764   54.45716   52.24559
      97      444        2     0.00000   16.06364   22.03784   55.83502
      98      444        2     0.00000   45.48744   22.12294   26.48323
      99      444        2     0.00000   16.06364   51.47485   26.48323
     100      444        2     0.00000   45.31606   51.38975   55.83502
     101      444        2     0.00000   16.06364   26.33388   51.55142
     102      444        2     0.00000   45.48744   26.41898   22.19964
     103      444        2     0.00000   16.06364   55.77089   22.19964
     104      444        2     0.00000   45.31606   55.68579   51.55142
     105      444        2     0.00000   16.09610   22.75017   57.06457
     106      444        2     0.00000   45.51990   22.83527   27.71278
     107      444        2     0.00000   16.09610   52.18718   27.71278
     108      444        2     0.00000   45.34852   52.10208   57.06457
     109      444        2     0.00000   16.09610   27.56135   52.26731
     110      444        2     0.00000   45.51990   27.64646   22.91553
     111      444        2     0.00000   16.09610   56.99836   22.91553
     112      444        2     0.00000   45.34852   56.91326   52.26731
     113      444        2     0.00000   16.11590   24.15862   57.11417
     114      444        2     0.00000   45.53970   24.24373   27.76239
     115      444        2     0.00000   16.11590   53.59563   27.76239
     116      444        2     0.00000   45.36832   53.51053   57.11417
     117      444        2     0.00000   16.11590   27.60687   53.67590
     118      444        2     0.00000   45.53970   27.69198   24.32412
     119      444        2     0.00000   16.11590   57.04388   24.32412
     120      444        2     0.00000   45.36832   56.95878   53.67590
     121      444        1     0.00000   16.04390   20.55998   55.83296
     122      444        1     0.00000   45.46770   20.64508   26.48118
     123      444        1     0.00000   16.04390   49.99699   26.48118
     124      444        1     0.00000   45.29633   49.91189   55.83296
     125      444        1     0.00000   16.04390   26.33611   50.07356
     126      444        1     0.00000   45.46770   26.42121   20.72177
     127      444        1     0.00000   16.04390   55.77312   20.72177
     128      444        1     0.00000   45.29633   55.68802   50.07356
     129      444        1     0.00000   16.02266   15.61047   55.79745
     130      444        1     0.00000   45.44647   15.69557   26.44566
     131      444        1     0.00000   16.02266   45.04748   26.44566
     132      444        1     0.00000   45.27509   44.96238   55.79745
     133      444        1     0.00000   16.02266   26.31494   45.12397
     134      444        1     0.00000   45.44647   26.40005   15.77218
     135      444        1     0.00000   16.02266   55.75195   15.77218
     136      444        1     0.00000   45.27509   55.66685   45.12397
     137      444        2     0.00000   16.02226   14.13582   55.80097
     138      444        2     0.00000   45.44607   14.22092   26.44919
     139      444        2     0.00000   16.02226   43.57283   26.44919
     140      444        2     0.00000   45.27469   43.48773   55.80097
     141      444        2     0.00000   16.02226   26.32274   43.64933
     142      444        2     0.00000   45.44607   26.40784   14.29755
     143      444        2     0.00000   16.02226   55.75975   14.29755
     144      444        2     0.00000   45.27469   55.67465   43.64933
     145      444        2     0.00000   16.01443   13.41111   54.58904
     146      444        2     0.00000   45.43823   13.49621   25.23725
     147      444        2     0.00000   16.01443   42.84812   25.23725
     148      444        2     0.00000   45.26686   42.76302   54.58904
     149      444        2     0.00000   16.01443   25.11291   42.92111
     150      444        2     0.00000   45.43823   25.19801   13.56933
     151      444        2     0.00000   16.01443   54.54992   13.56933
     152      444        2     0.00000   45.26686   54.46482   42.92111
     153      444        2     0.00000   16.01887   12.01756   54.66212
     154      444        2     0.00000   45.44268   12.10267   25.31034
     155      444        2     0.00000   16.01887   41.45458   25.31034
     156      444        2     0.00000   45.27130   41.36947   54.66212
     157      444        2     0.00000   16.01887   25.19004   41.52779
     158      444        2     0.00000   45.44268   25.27514   12.17600
     159      444        2     0.00000   16.01887   54.62705   12.17600
     160      444        2     0.00000   45.27130   54.54195   41.52779
     161      444        2     0.00000   16.03199   11.34044   55.86760
     162      444        2     0.00000   45.45579   11.42555   26.51582
     163      444        2     0.00000   16.03199   40.77745   26.51582
     164      444        2     0.00000   45.28441   40.69235   55.86760
     165      444        2     0.00000   16.03199   26.39747   40.85416
     166      444        2     0.00000   45.45579   26.48258   11.50238
     167      444        2     0.00000   16.03199   55.83448   11.50238
     168      444        2     0.00000   45.28441   55.74938   40.85416
     169      444        2     0.00000   16.04675    9.83739   54.33015
     170      444        2     0.00000   45.47055    9.92249   24.97837
     171      444        2     0.00000   16.04675   39.27440   24.97837
     172      444        2     0.00000   45.29917   39.18929   54.33015
     173      444        2     0.00000   16.04675   24.86439   39.34665
     174      444        2     0.00000   45.47055   24.94949    9.99487
     175      444        2     0.00000   16.04675   54.30140    9.99487
     176      444        2     0.00000   45.29917   54.21630   39.34665
     177      444        2     0.00000   16.02749   11.05679   53.67854
     178      444        2     0.00000   45.45129   11.14190   24.32676
     179      444        2     0.00000   16.02749   40.49380   24.32676
     180      444        2     0.00000   45.27991   40.40870   53.67854
     181      444        2     0.00000   16.02749   24.20925   40.56417
     182      444        2     0.00000   45.45129   24.29435   11.21238
     183      444        2     0.00000   16.02749   53.64626   11.21238
     184      444        2     0.00000   45.27991   53.56116   40.56417
     185      444        2     0.00000   16.02599   11.16122   52.28551
     186      444        2     0.00000   45.44979   11.24632   22.93372
     187      444        2     0.00000   16.02599   40.59823   22.93372
     188      444        2     0.00000   45.27841   40.51312   52.28551
     189      444        2     0.00000   16.02599   22.81592   40.66455
     190      444        2     0.00000   45.44979   22.90102   11.31276
     191      444        2     0.00000   16.02599   52.25293   11.31276
     192      444        2     0.00000   45.27841   52.16782   40.66455
     193      444        2     0.00000   16.03754    9.96466   51.53469
     194      444        2     0.00000   45.46135   10.04976   22.18290
     195      444        2     0.00000   16.03754   39.40167   22.18290
     196      444        2     0.00000   45.28997   39.31657   51.53469
     197      444        2     0.00000   16.03754   22.06857   39.46582
     198      444        2     0.00000   45.46135   22.15367   10.11404
     199      444        2     0.00000   16.03754   51.50558   10.11404
     200      444        2     0.00000   45.28997   51.42048   39.46582
     201      444        2     0.00000   16.04861    8.71878   52.20508
     202      444        2     0.00000   45.47241    8.80389   22.85330
     203      444        2     0.00000   16.04861   38.15579   22.85330
     204      444        2     0.00000   45.30103   38.07069   52.20508
     205      444        2     0.00000   16.04861   22.74258   38.22189
     206      444        2     0.00000   45.47241   22.82768    8.87011
     207      444        2     0.00000   16.04861   52.17959    8.87011
     208      444        2     0.00000   45.30103   52.09448   38.22189
     209      444        2     0.00000   16.05235    8.64428   53.60634
     210      444        2     0.00000   45.47615    8.72938   24.25455
     211      444        2     0.00000   16.05235   38.08129   24.25455
     212      444        2     0.00000   45.30477   37.99618   53.60634
     213      444        2     0.00000   16.05235   24.14404   38.15145
     214      444        2     0.00000   45.47615   24.22914    8.79967
     215      444        2     0.00000   16.05235   53.58105    8.79967
     216      444        2     0.00000   45.30477   53.49595   38.15145
     217      444        1     0.00000   16.04531    9.98978   50.05859
     218      444        1     0.00000   45.46911   10.07488   20.70680
     219      444        1     0.00000   16.04531   39.42679   20.70680
     220      444        1     0.00000   45.29774   39.34169   50.05859
     221      444        1     0.00000   16.04531   20.59240   39.48666
     222      444        1     0.00000   45.46911   20.67751   10.13488
     223      444        1     0.00000   16.04531   50.02941   10.13488
     224      444        1     0.00000   45.29774   49.94431   39.48666
     225      444        1     0.00000   18.54265   18.13942   39.50046
     226      444        1     0.00000   47.96645   18.22453   10.14867
     227      444        1     0.00000   18.54265   47.57643   10.14867
     228      444        1     0.00000   47.79508   47.49133   39.50046
     229      444        1     0.00000   18.54265   10.01069   47.60566
     230      444        1     0.00000   47.96645   10.09579   18.25387
     231      444        1     0.00000   18.54265   39.44770   18.25387
     232      444        1     0.00000   47.79508   39.36260   47.60566
     233      444        2     0.00000   20.01778   18.14649   39.49283
     234      444        2     0.00000   49.44158   18.23159   10.14104
     235      444        2     0.00000   20.01778   47.58350   10.14104
     236      444        2     0.00000   49.27020   47.49840   39.49283
     237      444        2     0.00000   20.01778   10.00304   47.61270
     238      444        2     0.00000   49.44158   10.08814   18.26092
     239      444        2     0.00000   20.01778   39.44005   18.26092
     240      444        2     0.00000   49.27020   39.35494   47.61270
     241      444        2     0.00000   20.74117   18.16617   40.70359
     242      444        2     0.00000   50.16497   18.25127   11.35180
     243      444        2     0.00000   20.74117   47.60318   11.35180
     244      444        2     0.00000   49.99359   47.51808   40.70359
     245      444        2     0.00000   20.74117   11.21374   47.63589
     246      444        2     0.00000   50.16497   11.29884   18.28411
     247      444        2     0.00000   20.74117   40.65075   18.28411
     248      444        2     0.00000   49.99359   40.56564   47.63589
     249      444        2     0.00000   22.13317   18.16784   40.63344
     250      444        2     0.00000   51.55697   18.25294   11.28165
     251      444        2     0.00000   22.13317   47.60485   11.28165
     252      444        2     0.00000   51.38559   47.51975   40.63344
     253      444        2     0.00000   22.13317   11.14358   47.63736
     254      444        2     0.00000   51.55697   11.22868   18.28557
     255      444        2     0.00000   22.13317   40.58059   18.28557
     256      444        2     0.00000   51.38559   40.49549   47.63736
     257      444        2     0.00000   22.81740   18.15168   39.42502
     258      444        2     0.00000   52.24120   18.23678   10.07324
     259      444        2     0.00000   22.81740   47.58869   10.07324
     260      444        2     0.00000   52.06982   47.50358   39.42502
     261      444        2     0.00000   22.81740    9.93522   47.61769
     262      444        2     0.00000   52.24120   10.02032   18.26591
     263      444        2     0.00000   22.81740   39.37223   18.26591
     264      444        2     0.00000   52.06982   39.28713   47.61769
     265      444        2     0.00000   24.34910   18.15256   40.94310
     266      444        2     0.00000   53.77290   18.23766   11.59131
     267      444        2     0.00000   24.34910   47.58957   11.59131
     268      444        2     0.00000   53.60152   47.50447   40.94310
     269      444        2     0.00000   24.34910   11.45328   47.62298
     270      444        2     0.00000   53.77290   11.53839   18.27119
     271      444        2     0.00000   24.34910   40.89029   18.27119
     272      444        2     0.00000   53.60152   40.80519   47.62298
     273      444        2     0.00000   23.07787   18.17141   41.62905
     274      444        2     0.00000   52.50167   18.25651   12.27726
     275      444        2     0.00000   23.07787   47.60842   12.27726
     276      444        2     0.00000   52.33029   47.52332   41.62905
     277      444        2     0.00000   23.07787   12.13918   47.64382
     278      444        2     0.00000   52.50167   12.22428   18.29203
     279      444        2     0.00000   23.07787   41.57619   18.29203
     280      444        2     0.00000   52.33029   41.49109   47.64382
     281      444        2     0.00000   22.99102   18.18764   43.01651
     282      444        2     0.00000   52.41483   18.27274   13.66472
     283      444        2     0.00000   22.99102   47.62465   13.66472
     284      444        2     0.00000   52.24345   47.53955   43.01651
     285      444        2     0.00000   22.99102   13.52658   47.66407
     286      444        2     0.00000   52.41483   13.61169   18.31228
     287      444        2     0.00000   22.99102   42.96359   18.31228
     288      444        2     0.00000   52.24345   42.87849   47.66407
     289      444        2     0.00000   24.20054   18.19345   43.74590
     290      444        2     0.00000   53.62434   18.27855   14.39412
     291      444        2     0.00000   24.20054   47.63046   14.39412
     292      444        2     0.00000   53.45296   47.54536   43.74590
     293      444        2     0.00000   24.20054   14.25596   47.67199
     294      444        2     0.00000   53.62434   14.34106   18.32021
     295      444        2     0.00000   24.20054   43.69297   18.32021
     296      444        2     0.00000   53.45296   43.60786   47.67199
     297      444        2     0.00000   25.44765   18.18749   43.06875
     298      444        2     0.00000   54.87145   18.27259   13.71697
     299      444        2     0.00000   25.44765   47.62450   13.71697
     300      444        2     0.00000   54.70007   47.53940   43.06875
     301      444        2     0.00000   25.44765   13.57883   47.66407
     302      444        2     0.00000   54.87145   13.66393   18.31228
     303      444        2     0.00000   25.44765   43.01584   18.31228
     304      444        2     0.00000   54.70007   42.93074   47.66407
     305      444        2     0.00000   25.53630   18.16895   41.66662
     306      444        2     0.00000   54.96010   18.25406   12.31483
     307      444        2     0.00000   25.53630   47.60596   12.31483
     308      444        2     0.00000   54.78872   47.52086   41.66662
     309      444        2     0.00000   25.53630   12.17675   47.64147
     310      444        2     0.00000   54.96010   12.26186   18.28968
     311      444        2     0.00000   25.53630   41.61377   18.28968
     312      444        2     0.00000   54.78872   41.52866   47.64147
     313      444        1     0.00000   24.18211   18.20150   45.22053
     314      444        1     0.00000   53.60591   18.28660   15.86875
     315      444        1     0.00000   24.18211   47.63851   15.86875
     316      444        1     0.00000   53.43453   47.55341   45.22053
     317      444        1     0.00000   24.18211   15.73056   47.68432
     318      444        1     0.00000   53.60591   15.81566   18.33254
     319      444        1     0.00000   24.18211   45.16757   18.33254
     320      444        1     0.00000   53.43453   45.08247   47.68432
     321      444        1     0.00000   24.18116   18.19128   50.16396
     322      444        1     0.00000   53.60497   18.27638   20.81218
     323      444        1     0.00000   24.18116   47.62829   20.81218
     324      444        1     0.00000   53.43359   47.54319   50.16396
     325      444        1     0.00000   24.18116   20.67400   47.68843
     326      444        1     0.00000   53.60497   20.75910   18.33665
     327      444        1     0.00000   24.18116   50.11101   18.33665
     328      444        1     0.00000   53.43359   50.02590   47.68843
     329      444        2     0.00000   24.19687   18.16734   51.63771
     330      444        2     0.00000   53.62067   18.25244   22.28593
     331      444        2     0.00000   24.19687   47.60435   22.28593
     332      444        2     0.00000   53.44929   47.51925   51.63771
     333      444        2     0.00000   24.19687   22.14781   47.66877
     334      444        2     0.00000   53.62067   22.23291   18.31698
     335      444        2     0.00000   24.19687   51.58482   18.31698
     336      444        2     0.00000   53.44929   51.49972   47.66877
     337      444        2     0.00000   22.98961   18.13792   52.36828
     338      444        2     0.00000   52.41341   18.22303   23.01650
     339      444        2     0.00000   22.98961   47.57493   23.01650
     340      444        2     0.00000   52.24203   47.48983   52.36828
     341      444        2     0.00000   22.98961   22.87846   47.64147