Created on Wed Jun 21 12:25:11 2017 

        1488 atoms
        1800 bonds
        3264 angles
        5568 dihedrals
        2592 impropers

           6 atom types
           7 bond types
          10 angle types
           9 dihedral types
           3 improper types
           0.000000  40.490000 xlo xhi
           0.000000  40.490000 ylo yhi
           0.000000  40.490000 zlo zhi
           0.000000   0.000000   0.000000 xy xz yz

Masses

    1    63.546000000 # 165
    2     1.007940000 # 5
    3    12.010700000 # 2
    4    12.010700000 # 168
    5    14.006700000 # 40
    6    15.999400000 # 167

Bond Coeffs

    1                       class2        2.536000       75.465060     -192.435903      286.248406 # 165 165
    2                        morse       50.000000        1.451345        1.914000 # 165 167
    3                       class2        1.094000      390.634200     -996.117210     1481.724350 # 5 2
    4                       class2        1.394000      509.335200    -1298.804760     1931.972080 # 2 2
    5                       class2        1.266000      797.814600    -2034.427230     3026.210505 # 2 40
    6                       class2        1.485000      360.635220     -919.619811     1367.934469 # 168 2
    7                       class2        1.278000      585.591600    -1493.258580     2221.222138 # 168 167

Angle Coeffs

    1              cosine/periodic      100.000000               1               4 # 167 165 167
    2                       class2       84.336000       29.351283      -23.543865        5.395856 # 165 165 167
    3                       class2      119.000000       47.480016      -38.085663        8.728591 # 2 2 40
    4                       class2      127.050000       53.307109      -42.759813        9.799827 # 2 2 2
    5                       class2      115.098000       79.493057      -63.764634       14.613778 # 2 168 167
    6                       class2      123.490000      111.074462      -89.097370       20.419613 # 167 168 167
    7                       class2      117.711000       57.407656      -46.049029       10.553660 # 2 2 168
    8                       class2      120.350000       36.185527      -29.025892        6.652244 # 2 2 5
    9                       class2      124.000000       30.933950      -24.813387        5.686809 # 2 40 2
   10                       class2      126.814000       13.740429      -11.021760        2.526001 # 168 167 165

BondBond Coeffs

    1 skip # 167 165 167
    2 class2        0.000000        2.536000        1.914000 # 165 165 167
    3 class2        0.000000        1.394000        1.266000 # 2 2 40
    4 class2        0.000000        1.394000        1.394000 # 2 2 2
    5 class2        0.000000        1.485000        1.278000 # 2 168 167
    6 class2        0.000000        1.278000        1.278000 # 167 168 167
    7 class2        0.000000        1.394000        1.485000 # 2 2 168
    8 class2        0.000000        1.394000        1.094000 # 2 2 5
    9 class2        0.000000        1.266000        1.266000 # 2 40 2
   10 class2        0.000000        1.914000        1.278000 # 168 167 165

BondAngle Coeffs

    1 skip  # 167 165 167
    2 class2        0.000000        0.000000        2.536000        1.914000 # 165 165 167
    3 class2        0.000000        0.000000        1.394000        1.266000 # 2 2 40
    4 class2        0.000000        0.000000        1.394000        1.394000 # 2 2 2
    5 class2        0.000000        0.000000        1.485000        1.278000 # 2 168 167
    6 class2        0.000000        0.000000        1.278000        1.278000 # 167 168 167
    7 class2        0.000000        0.000000        1.394000        1.485000 # 2 2 168
    8 class2        0.000000        0.000000        1.394000        1.094000 # 2 2 5
    9 class2        0.000000        0.000000        1.266000        1.266000 # 2 40 2
   10 class2        0.000000        0.000000        1.914000        1.278000 # 168 167 165

Dihedral Coeffs

    1     4       0.000000     1     0       0.000000     2  -180       0.000000     3     0       0.304500     4  -180 # 167 165 165 167
    2     4       0.000000     1     0       0.000000     2  -180       0.000000     3     0       0.000000     4  -180 # 167 165 167 168
    3     4       0.000000     1     0       1.500000     2  -180       0.000000     3     0       0.000000     4  -180 # 40 2 2 5
    4     4       0.000000     1     0       3.158000     2  -180       0.000000     3     0       0.000000     4  -180 # 2 2 2 5
    5     4       0.000000     1     0       7.189500     2  -180       0.000000     3     0       0.000000     4  -180 # 40 2 2 2
    6     4       0.000000     1     0       2.189500     2  -180       0.000000     3     0       0.000000     4  -180 # 2 2 2 2
    7     4       0.000000     1     0       0.870500     2  -180       0.000000     3     0       0.000000     4  -180 # 167 168 2 2
    8     4       0.000000     1     0       2.264000     2  -180       0.000000     3     0       0.000000     4  -180 # 167 168 167 165
    9     4       0.000000     1     0       2.986000     2  -180       0.000000     3     0       0.000000     4  -180 # 5 2 2 5

Improper Coeffs

    1        1.366860      180.000000  # 2 2 40 2
    2       13.668602      180.000000  # 167 168 2 167
    3        6.258781      180.000000  # 168 2 2 2

Atoms

       1      444        1     0.00000   20.24500   20.24500    6.95618
       2      444        1     0.00000    6.95618    0.00000    0.00000
       3      444        1     0.00000    6.95618   20.24500   20.24500
       4      444        1     0.00000   27.20118   20.24500    0.00000
       5      444        1     0.00000   27.20118    0.00000   20.24500
       6      444        1     0.00000    0.00000    6.95618    0.00000
       7      444        1     0.00000    0.00000   27.20118   20.24500
       8      444        1     0.00000   20.24500   27.20118    0.00000
       9      444        1     0.00000   20.24500    6.95618   20.24500
      10      444        1     0.00000    0.00000    0.00000   33.53382
      11      444        1     0.00000    0.00000   20.24500   13.28882
      12      444        1     0.00000   20.24500   20.24500   33.53382
      13      444        1     0.00000   20.24500    0.00000   13.28882
      14      444        1     0.00000   33.53382    0.00000    0.00000
      15      444        1     0.00000   33.53382   20.24500   20.24500
      16      444        1     0.00000   13.28882   20.24500    0.00000
      17      444        1     0.00000   13.28882    0.00000   20.24500
      18      444        1     0.00000    0.00000   33.53382    0.00000
      19      444        1     0.00000    0.00000   13.28882   20.24500
      20      444        1     0.00000   20.24500   13.28882    0.00000
      21      444        1     0.00000   20.24500   33.53382   20.24500
      22      444        1     0.00000    0.00000    0.00000    9.58803
      23      444        1     0.00000    0.00000   20.24500   29.83303
      24      444        1     0.00000   20.24500   20.24500    9.58803
      25      444        1     0.00000   20.24500    0.00000   29.83303
      26      444        1     0.00000    9.58803    0.00000    0.00000
      27      444        1     0.00000    9.58803   20.24500   20.24500
      28      444        1     0.00000   29.83303   20.24500    0.00000
      29      444        1     0.00000   29.83303    0.00000   20.24500
      30      444        1     0.00000    0.00000    9.58803    0.00000
      31      444        1     0.00000    0.00000   29.83303   20.24500
      32      444        1     0.00000   20.24500   29.83303    0.00000
      33      444        1     0.00000   20.24500    9.58803   20.24500
      34      444        1     0.00000    0.00000    0.00000   30.90197
      35      444        1     0.00000    0.00000   20.24500   10.65697
      36      444        1     0.00000   20.24500   20.24500   30.90197
      37      444        1     0.00000    0.00000    0.00000    6.95618
      38      444        1     0.00000   20.24500    0.00000   10.65697
      39      444        1     0.00000   30.90197    0.00000    0.00000
      40      444        1     0.00000   30.90197   20.24500   20.24500
      41      444        1     0.00000   10.65697   20.24500    0.00000
      42      444        1     0.00000   10.65697    0.00000   20.24500
      43      444        1     0.00000    0.00000   30.90197    0.00000
      44      444        1     0.00000    0.00000   10.65697   20.24500
      45      444        1     0.00000   20.24500   10.65697    0.00000
      46      444        1     0.00000   20.24500   30.90197   20.24500
      47      444        1     0.00000    0.00000   20.24500   27.20118
      48      444        1     0.00000   20.24500    0.00000   27.20118
      49      444        2     0.00000   24.46811    0.00000    9.94434
      50      444        2     0.00000    0.00000   10.30066   36.26689
      51      444        2     0.00000    0.00000   30.54566   16.02189
      52      444        2     0.00000   20.24500   30.54566   36.26689
      53      444        2     0.00000   20.24500   10.30066   16.02189
      54      444        2     0.00000    0.00000   30.18934    4.22311
      55      444        2     0.00000    0.00000    9.94434   24.46811
      56      444        2     0.00000   20.24500    9.94434    4.22311
      57      444        2     0.00000   20.24500   30.18934   24.46811
      58      444        2     0.00000   10.30066   36.26689    0.00000
      59      444        2     0.00000   10.30066   16.02189   20.24500
      60      444        2     0.00000   30.54566   16.02189    0.00000
      61      444        2     0.00000   30.54566   36.26689   20.24500
      62      444        2     0.00000    0.00000   30.18934   36.26689
      63      444        2     0.00000    0.00000    9.94434   16.02189
      64      444        2     0.00000   20.24500    9.94434   36.26689
      65      444        2     0.00000   20.24500   30.18934   16.02189
      66      444        2     0.00000    0.00000   36.26689   30.18934
      67      444        2     0.00000    0.00000   16.02189    9.94434
      68      444        2     0.00000   20.24500   16.02189   30.18934
      69      444        2     0.00000   20.24500   36.26689    9.94434
      70      444        2     0.00000   36.26689   30.18934    0.00000
      71      444        2     0.00000   36.26689    9.94434   20.24500
      72      444        2     0.00000   16.02189    9.94434    0.00000
      73      444        2     0.00000   16.02189   30.18934   20.24500
      74      444        2     0.00000    0.00000   36.26689   10.30066
      75      444        2     0.00000    0.00000   16.02189   30.54566
      76      444        2     0.00000   20.24500   16.02189   10.30066
      77      444        2     0.00000   20.24500   36.26689   30.54566
      78      444        2     0.00000    4.22311   30.18934    0.00000
      79      444        2     0.00000    4.22311    9.94434   20.24500
      80      444        2     0.00000   24.46811    9.94434    0.00000
      81      444        2     0.00000   24.46811   30.18934   20.24500
      82      444        2     0.00000   36.26689    0.00000   30.18934
      83      444        2     0.00000   36.26689   20.24500    9.94434
      84      444        2     0.00000   16.02189   20.24500   30.18934
      85      444        2     0.00000   16.02189    0.00000    9.94434
      86      444        2     0.00000   30.18934   36.26689    0.00000
      87      444        2     0.00000   30.18934   16.02189   20.24500
      88      444        2     0.00000    9.94434   16.02189    0.00000
      89      444        2     0.00000    9.94434   36.26689   20.24500
      90      444        2     0.00000   36.26689    0.00000   10.30066
      91      444        2     0.00000   36.26689   20.24500   30.54566
      92      444        2     0.00000   16.02189   20.24500   10.30066
      93      444        2     0.00000   16.02189    0.00000   30.54566
      94      444        2     0.00000   30.18934    4.22311    0.00000
      95      444        2     0.00000   30.18934   24.46811   20.24500
      96      444        2     0.00000    9.94434   24.46811    0.00000
      97      444        2     0.00000    9.94434    4.22311   20.24500
      98      444        2     0.00000    0.00000    6.52699   10.38164
      99      444        2     0.00000    0.00000   26.77199   30.62664
     100      444        2     0.00000   20.24500   26.77199   10.38164
     101      444        2     0.00000   20.24500    6.52699   30.62664
     102      444        2     0.00000   10.38164    0.00000    6.52699
     103      444        2     0.00000   10.38164   20.24500   26.77199
     104      444        2     0.00000   30.62664   20.24500    6.52699
     105      444        2     0.00000   30.62664    0.00000   26.77199
     106      444        2     0.00000    6.52699   10.38164    0.00000
     107      444        2     0.00000    6.52699   30.62664   20.24500
     108      444        2     0.00000   26.77199   30.62664    0.00000
     109      444        2     0.00000   26.77199   10.38164   20.24500
     110      444        2     0.00000    0.00000    6.52699   30.10836
     111      444        2     0.00000    0.00000   26.77199    9.86336
     112      444        2     0.00000   20.24500   26.77199   30.10836
     113      444        2     0.00000   20.24500    6.52699    9.86336
     114      444        2     0.00000   10.38164    0.00000   33.96301
     115      444        2     0.00000   10.38164   20.24500   13.71801
     116      444        2     0.00000   30.62664   20.24500   33.96301
     117      444        2     0.00000   30.62664    0.00000   13.71801
     118      444        2     0.00000   30.10836    0.00000    6.52699
     119      444        2     0.00000   30.10836   20.24500   26.77199
     120      444        2     0.00000    9.86336   20.24500    6.52699
     121      444        2     0.00000    9.86336    0.00000   26.77199
     122      444        2     0.00000   33.96301   10.38164    0.00000
     123      444        2     0.00000   33.96301   30.62664   20.24500
     124      444        2     0.00000   13.71801   30.62664    0.00000
     125      444        2     0.00000   13.71801   10.38164   20.24500
     126      444        2     0.00000   30.10836    0.00000   33.96301
     127      444        2     0.00000   30.10836   20.24500   13.71801
     128      444        2     0.00000    9.86336   20.24500   33.96301
     129      444        2     0.00000    9.86336    0.00000   13.71801
     130      444        2     0.00000    6.52699    0.00000   10.38164
     131      444        2     0.00000    6.52699   20.24500   30.62664
     132      444        2     0.00000   26.77199   20.24500   10.38164
     133      444        2     0.00000   26.77199    0.00000   30.62664
     134      444        2     0.00000    0.00000   30.62664   26.77199
     135      444        2     0.00000   20.24500   30.62664    6.52699
     136      444        2     0.00000   20.24500   10.38164   26.77199
     137      444        2     0.00000   10.38164    6.52699    0.00000
     138      444        2     0.00000   10.38164   26.77199   20.24500
     139      444        2     0.00000   30.62664   26.77199    0.00000
     140      444        2     0.00000   30.62664    6.52699   20.24500
     141      444        2     0.00000    6.52699    0.00000   30.10836
     142      444        2     0.00000    6.52699   20.24500    9.86336
     143      444        2     0.00000   26.77199   20.24500   30.10836
     144      444        2     0.00000   26.77199    0.00000    9.86336
     145      444        2     0.00000    0.00000   10.38164   33.96301
     146      444        2     0.00000    0.00000   30.62664   13.71801
     147      444        2     0.00000   20.24500   30.62664   33.96301
     148      444        2     0.00000   20.24500   10.38164   13.71801
     149      444        2     0.00000    0.00000   30.10836    6.52699
     150      444        2     0.00000    0.00000    9.86336   26.77199
     151      444        2     0.00000   20.24500    9.86336    6.52699
     152      444        2     0.00000   20.24500   30.10836   26.77199
     153      444        2     0.00000   10.38164   33.96301    0.00000
     154      444        2     0.00000   10.38164   13.71801   20.24500
     155      444        2     0.00000   30.62664   13.71801    0.00000
     156      444        2     0.00000   30.62664   33.96301   20.24500
     157      444        2     0.00000    0.00000   30.10836   33.96301
     158      444        2     0.00000    0.00000    9.86336   13.71801
     159      444        2     0.00000   20.24500    9.86336   33.96301
     160      444        2     0.00000   20.24500   30.10836   13.71801
     161      444        2     0.00000    0.00000   33.96301   30.10836
     162      444        2     0.00000    0.00000   13.71801    9.86336
     163      444        2     0.00000   20.24500   13.71801   30.10836
     164      444        2     0.00000   20.24500   33.96301    9.86336
     165      444        2     0.00000   33.96301   30.10836    0.00000
     166      444        2     0.00000   33.96301    9.86336   20.24500
     167      444        2     0.00000   13.71801    9.86336    0.00000
     168      444        2     0.00000   13.71801   30.10836   20.24500
     169      444        2     0.00000    0.00000   33.96301   10.38164
     170      444        2     0.00000    0.00000   13.71801   30.62664
     171      444        2     0.00000   20.24500   13.71801   10.38164
     172      444        2     0.00000   20.24500   33.96301   30.62664
     173      444        2     0.00000    6.52699   30.10836    0.00000
     174      444        2     0.00000    6.52699    9.86336   20.24500
     175      444        2     0.00000   26.77199    9.86336    0.00000
     176      444        2     0.00000   26.77199   30.10836   20.24500
     177      444        2     0.00000   33.96301    0.00000   30.10836
     178      444        2     0.00000   33.96301   20.24500    9.86336
     179      444        2     0.00000   13.71801   20.24500   30.10836
     180      444        2     0.00000   13.71801    0.00000    9.86336
     181      444        2     0.00000   30.10836   33.96301    0.00000
     182      444        2     0.00000   30.10836   13.71801   20.24500
     183      444        2     0.00000    9.86336   13.71801    0.00000
     184      444        2     0.00000    9.86336   33.96301   20.24500
     185      444        2     0.00000   33.96301    0.00000   10.38164
     186      444        2     0.00000   33.96301   20.24500   30.62664
     187      444        2     0.00000   13.71801   20.24500   10.38164
     188      444        2     0.00000   13.71801    0.00000   30.62664
     189      444        2     0.00000   30.10836    6.52699    0.00000
     190      444        2     0.00000   30.10836   26.77199   20.24500
     191      444        2     0.00000    9.86336   26.77199    0.00000
     192      444        2     0.00000    9.86336    6.52699   20.24500
     193      444        2     0.00000    0.00000    4.27170    6.28000
     194      444        2     0.00000    0.00000   24.51670   26.52500
     195      444        2     0.00000   20.24500   24.51670    6.28000
     196      444        2     0.00000   20.24500    4.27170   26.52500
     197      444        2     0.00000    6.28000    0.00000    4.27170
     198      444        2     0.00000    6.28000   20.24500   24.51670
     199      444        2     0.00000   26.52500   20.24500    4.27170
     200      444        2     0.00000   26.52500    0.00000   24.51670
     201      444        2     0.00000    4.27170    6.28000    0.00000
     202      444        2     0.00000    4.27170   26.52500   20.24500
     203      444        2     0.00000   24.51670   26.52500    0.00000
     204      444        2     0.00000   24.51670    6.28000   20.24500
     205      444        2     0.00000    0.00000    4.27170   34.21000
     206      444        2     0.00000    0.00000   24.51670   13.96500
     207      444        2     0.00000   20.24500   24.51670   34.21000
     208      444        2     0.00000   20.24500    4.27170   13.96500
     209      444        2     0.00000    6.28000    0.00000   36.21831
     210      444        2     0.00000    6.28000   20.24500   15.97331
     211      444        2     0.00000   26.52500   20.24500   36.21831
     212      444        2     0.00000   26.52500    0.00000   15.97331
     213      444        2     0.00000   34.21000    0.00000    4.27170
     214      444        2     0.00000   34.21000   20.24500   24.51670
     215      444        2     0.00000   13.96500   20.24500    4.27170
     216      444        2     0.00000   13.96500    0.00000   24.51670
     217      444        2     0.00000   36.21831    6.28000    0.00000
     218      444        2     0.00000   36.21831   26.52500   20.24500
     219      444        2     0.00000   15.97331   26.52500    0.00000
     220      444        2     0.00000   15.97331    6.28000   20.24500
     221      444        2     0.00000   34.21000    0.00000   36.21831
     222      444        2     0.00000   34.21000   20.24500   15.97331
     223      444        2     0.00000   13.96500   20.24500   36.21831
     224      444        2     0.00000   13.96500    0.00000   15.97331
     225      444        2     0.00000    4.27170    0.00000    6.28000
     226      444        2     0.00000    4.27170   20.24500   26.52500
     227      444        2     0.00000   24.51670   20.24500    6.28000
     228      444        2     0.00000   24.51670    0.00000   26.52500
     229      444        2     0.00000    0.00000    6.28000    4.27170
     230      444        2     0.00000    0.00000   26.52500   24.51670
     231      444        2     0.00000   20.24500   26.52500    4.27170
     232      444        2     0.00000   20.24500    6.28000   24.51670
     233      444        2     0.00000    6.28000    4.27170    0.00000
     234      444        2     0.00000    6.28000   24.51670   20.24500
     235      444        2     0.00000   26.52500   24.51670    0.00000
     236      444        2     0.00000   26.52500    4.27170   20.24500
     237      444        2     0.00000    4.27170    0.00000   34.21000
     238      444        2     0.00000    4.27170   20.24500   13.96500
     239      444        2     0.00000   24.51670   20.24500   34.21000
     240      444        2     0.00000   24.51670    0.00000   13.96500
     241      444        2     0.00000    0.00000    6.28000   36.21831
     242      444        2     0.00000    0.00000   26.52500   15.97331
     243      444        2     0.00000   20.24500   26.52500   36.21831
     244      444        2     0.00000   20.24500    6.28000   15.97331
     245      444        2     0.00000    0.00000   34.21000    4.27170
     246      444        2     0.00000    0.00000   13.96500   24.51670
     247      444        2     0.00000   20.24500   13.96500    4.27170
     248      444        2     0.00000   20.24500   34.21000   24.51670
     249      444        2     0.00000    6.28000   36.21831    0.00000
     250      444        2     0.00000    6.28000   15.97331   20.24500
     251      444        2     0.00000   26.52500   15.97331    0.00000
     252      444        2     0.00000   26.52500   36.21831   20.24500
     253      444        2     0.00000    0.00000   34.21000   36.21831
     254      444        2     0.00000    0.00000   13.96500   15.97331
     255      444        2     0.00000   20.24500   13.96500   36.21831
     256      444        2     0.00000   20.24500   34.21000   15.97331
     257      444        2     0.00000    0.00000   36.21831   34.21000
     258      444        2     0.00000    0.00000   15.97331   13.96500
     259      444        2     0.00000   20.24500   15.97331   34.21000
     260      444        2     0.00000   20.24500   36.21831   13.96500
     261      444        2     0.00000   36.21831   34.21000    0.00000
     262      444        2     0.00000   36.21831   13.96500   20.24500
     263      444        2     0.00000   15.97331   13.96500    0.00000
     264      444        2     0.00000   15.97331   34.21000   20.24500
     265      444        2     0.00000    0.00000   36.21831    6.28000
     266      444        2     0.00000    0.00000   15.97331   26.52500
     267      444        2     0.00000   20.24500   15.97331    6.28000
     268      444        2     0.00000   20.24500   36.21831   26.52500
     269      444        2     0.00000    4.27170   34.21000    0.00000
     270      444        2     0.00000    4.27170   13.96500   20.24500
     271      444        2     0.00000   24.51670   13.96500    0.00000
     272      444        2     0.00000   24.51670   34.21000   20.24500
     273      444        2     0.00000   36.21831    0.00000   34.21000
     274      444        2     0.00000   36.21831   20.24500   13.96500
     275      444        2     0.00000   15.97331   20.24500   34.21000
     276      444        2     0.00000   15.97331    0.00000   13.96500
     277      444        2     0.00000   34.21000   36.21831    0.00000
     278      444        2     0.00000   34.21000   15.97331   20.24500
     279      444        2     0.00000   13.96500   15.97331    0.00000
     280      444        2     0.00000   13.96500   36.21831   20.24500
     281      444        2     0.00000   36.21831    0.00000    6.28000
     282      444        2     0.00000   36.21831   20.24500   26.52500
     283      444        2     0.00000   15.97331   20.24500    6.28000
     284      444        2     0.00000   15.97331    0.00000   26.52500
     285      444        2     0.00000   34.21000    4.27170    0.00000
     286      444        2     0.00000   34.21000   24.51670   20.24500
     287      444        2     0.00000   13.96500   24.51670    0.00000
     288      444        2     0.00000   13.96500    4.27170   20.24500
     289      444        2     0.00000   21.89294   30.31486    8.53124
     290      444        2     0.00000   21.89294   10.06986   28.77624
     291      444        2     0.00000    8.53124    1.64794   10.06986
     292      444        2     0.00000    8.53124   21.89294   30.31486
     293      444        2     0.00000   28.77624    1.64794   30.31486
     294      444        2     0.00000    1.64794   10.06986   31.95876
     295      444        2     0.00000    1.64794   30.31486   11.71376
     296      444        2     0.00000   10.06986    8.53124   38.84206
     297      444        2     0.00000   10.06986   28.77624   18.59706
     298      444        2     0.00000   30.31486   28.77624   38.84206
     299      444        2     0.00000   30.31486    8.53124   18.59706
     300      444        2     0.00000   38.84206   10.06986    8.53124
     301      444        2     0.00000   38.84206   30.31486   28.77624
     302      444        2     0.00000   31.95876    1.64794   10.06986
     303      444        2     0.00000   31.95876   21.89294   30.31486
     304      444        2     0.00000   11.71376   21.89294   10.06986
     305      444        2     0.00000   11.71376    1.64794   30.31486
     306      444        2     0.00000   30.42014    8.53124    1.64794
     307      444        2     0.00000   10.17514   28.77624    1.64794
     308      444        2     0.00000   18.59706   30.31486   31.95876
     309      444        2     0.00000   18.59706   10.06986   11.71376
     310      444        2     0.00000   31.95876   21.89294   10.17514
     311      444        2     0.00000   30.42014   28.77624   18.59706
     312      444        2     0.00000   10.17514    8.53124   18.59706
     313      444        2     0.00000   30.31486   21.89294    8.53124
     314      444        2     0.00000    1.64794    8.53124   10.06986
     315      444        2     0.00000    1.64794   28.77624   30.31486
     316      444        2     0.00000    8.53124   10.06986    1.64794
     317      444        2     0.00000    8.53124   30.31486   21.89294
     318      444        2     0.00000   28.77624   30.31486    1.64794
     319      444        2     0.00000   28.77624   10.06986   21.89294
     320      444        2     0.00000   10.06986    1.64794   31.95876
     321      444        2     0.00000   10.06986   21.89294   11.71376
     322      444        2     0.00000   30.31486   21.89294   31.95876
     323      444        2     0.00000   30.31486    1.64794   11.71376
     324      444        2     0.00000   21.89294   28.77624   30.42014
     325      444        2     0.00000   21.89294    8.53124   10.17514
     326      444        2     0.00000   10.06986   38.84206    8.53124
     327      444        2     0.00000   10.06986   18.59706   28.77624
     328      444        2     0.00000   30.31486   38.84206   28.77624
     329      444        2     0.00000    1.64794   31.95876   10.06986
     330      444        2     0.00000    1.64794   11.71376   30.31486
     331      444        2     0.00000    8.53124   30.42014    1.64794
     332      444        2     0.00000   28.77624   10.17514    1.64794
     333      444        2     0.00000   21.89294   11.71376   30.42014
     334      444        2     0.00000   21.89294   31.95876   10.17514
     335      444        2     0.00000    8.53124   10.17514   18.59706
     336      444        2     0.00000   28.77624   30.42014   18.59706
     337      444        2     0.00000   18.59706   10.17514   31.95876
     338      444        2     0.00000   18.59706   30.42014   11.71376
     339      444        2     0.00000   31.95876   38.84206   30.42014
     340      444        2     0.00000   11.71376   18.59706   30.42014
     341      444        2     0.00000   11.71376   38.84206   10.17514