    1035
 i =    10000, time =    20000.000, E =    -17514.4677366934
  O         6.9635944698        8.5630459298       25.0512493063
  O         7.7871204613       23.1477655330       11.7933357264
  O         2.0145930232       23.0601052283       23.8660690303
  O        19.9607906887       23.9350270616        5.6872871637
  O        23.9958977367        2.4880282095       16.6237041095
  O        15.6296969692        3.3373146343       20.0860492130
  O         1.1919678190       17.2054898033       15.3085501089
  O        18.4346027180        9.7323530367        2.3407013204
  O         3.8831027602        9.4050010609       12.0387454052
  O        24.3449061851       12.4441481334        7.5011111838
  O        17.2555328760       13.2184195681       22.6489618988
  O        -0.7275821622       22.7283668524       23.5149295058
  O         1.3773077472        7.4962443673       14.6999287905
  O        20.8971344599       18.5750650733       13.9431241433
  O         1.7059888358       15.0178391981        2.3712501255
  O        21.6510834810        6.7778281754        0.7675894689
  O        19.8583645487       13.0389627114       13.0506831353
  O        -0.0329633235        2.1143198212        8.6380172638
  O        -0.3346830793       16.5997846349        6.4085930473
  O        21.1630276964       20.2861419328        8.5911032537
  O         4.3881303606       18.8235622099        1.5502647069
  O         6.2847826373       17.1090428511        2.6804273819
  O        -0.6388556741       20.1652737667       21.3243505531
  O        15.7202762571       21.6883144457        4.8976328923
  O         3.9508187176       14.0897623370        3.6545284661
  O         9.9018709564        2.2972461576       10.9990445482
  O        23.0892204813       18.5954788459        8.1975866901
  O        17.2551732238        1.6846646727       23.4668311458
  O         9.6412946772       21.0837709357        6.7832242829
  O        21.8327972864       -0.7321892994       17.9045378122
  O         8.9158909183        7.1082791698       19.9638925330
  O        21.9349843514       10.2048008454       19.3156045658
  O        16.6716384908        5.4517718833       18.4797422728
  O        21.4651572415        2.8872391221       17.8183106625
  O         9.3071807661        4.8023749994        4.4643918668
  O        13.1516455275       21.2358620594        7.7402580422
  O         8.0883258143       19.3634028548       21.0832703374
  O        15.6734762297       15.8997048502        3.2858212001
  O        16.9896891192        6.9352571469        9.1728284029
  O         2.8771578389       22.5982613948        2.6920925645
  O        18.8187257094       14.3893422542       16.2116164745
  O         4.9854019848       11.8363748369       24.5686004471
  O         0.0673477892        6.7854570103        6.4779797961
  O         7.7150408564        0.5466530398       10.6794016479
  O        21.3831716308       18.4049613236       10.4399177547
  O        11.5050657147       22.2194228050        1.4919063718
  O         0.0533159807        8.1662648341        3.7135942793
  O         0.6116557760       12.1008064419        9.7470341271
  O         9.4749595820       19.3526344930        4.8455974167
  O         4.2712059371        5.4946818202        5.5877486585
  O        19.8362271038       10.2441310801        5.7619232845
  O        24.2978550961       -0.1769269979       18.3134186623
  O        12.4426573345       23.3487456487       10.1075496796
  O        22.1825503122        1.7915176198       20.1989566145
  O        24.2811438162        5.9931567611       21.4953170387
  O        22.6266563178        7.5431602206       23.6319023833
  O        19.0156194443        0.1751618846        3.5827593315
  O         2.6912705492       17.4381457413        9.5420138549
  O        12.2192267995       24.7272255337        7.8986572915
  O        11.8968786429       10.2679440228        1.6544459781
  O        -0.6809674778        9.1922519890       19.3331352445
  O        14.6766960688       -0.1662740211       23.4088433319
  O        11.5773344414       17.6741398439        4.3152103885
  O        24.1213720680        5.9478295449       25.2985390584
  O         8.4619969869        2.1668717916        8.7960130447
  O         1.2827427505       15.9448875943       22.5520773534
  O         9.0999187152        1.1244927448       19.2548804195
  O         8.2571144218       17.0033186030        4.6318779993
  O        13.2058933040        1.9195551894        6.9432295792
  O        21.5435765504       14.0522759513       11.2673196306
  O        14.4637005925       14.3538886894       24.0782892729
  O         9.9831737420       19.9876232387       19.3781348157
  O        14.7961189630        0.7409744232       13.4167902881
  O        15.5027950855       13.8434312484        1.4309701497
  O        22.8353561750        2.4939142886        7.4922067141
  O         8.6424327606       12.5620915286        2.6992872138
  O         5.6013958972       24.3854042749       11.5940157539
  O         6.8622364494        3.9467348619       22.4449285921
  O         6.1249151472       21.4218467183        5.0528037202
  O        23.7206087936       15.3662591858       11.4204502197
  O        18.7579575227       21.5011614742        8.9184360103
  O        -0.2980602224       12.5988538132        2.4603159729
  O         6.0379883370        5.6663993637       19.5670233249
  O        13.2931268764        5.5437891125       18.5141999801
  O        21.7466670853        1.9855573829       11.1927792085
  O        18.4979994804       16.8970315662       23.2505940698
  O        18.9930507189       19.5594531718       22.3802308402
  O         4.1035483627        6.8056697861       21.7894691955
  O         8.8285809577        4.1522401384       24.2258911336
  O        12.0788161818       21.5735295437       12.0582312957
  O         1.9502275574       16.6479909788        5.1267537989
  O        20.6299995957        6.0146314781       18.0144324729
  O         8.4635725774        4.4658855215       19.3910394511
  O         6.8372917618       -0.3001920288       23.3569492025
  O         0.1135196013       11.0430086015       14.5274470125
  O         8.8973516457        4.2581369662        1.7707578230
  O         0.2077956173        4.4373473776        3.9571813253
  O        11.7848188393       20.7958019262       24.4089602028
  O         3.6474646864       19.9708684993       21.8008715710
  O         6.5582086932       18.6091173389       12.3435724132
  O         5.9061366430        1.5471360609        2.1855034853
  O        15.5120423118       22.7810862957       15.7129711399
  O        15.3692751089       10.4883837730       22.7108480377
  O         7.4737735313       24.2818900444        0.8740954265
  O        14.3396105589       21.5390059652       19.3595351173
  O         4.9522073150        3.7204565937        8.7735689129
  O        12.9446827547        1.7718253156        0.2036062491
  O        23.9465026757        0.7291313530       10.6628556617
  O        21.3835230234        4.2706126775       12.6865227935
  O        19.5681716844        7.2922112300        2.1380353450
  O        17.9664386741        6.7455503342        6.8255281074
  O        23.4518640114        9.7555517271        2.3084771864
  O         9.5575307981       17.2980120531       25.4455890188
  O         4.0624368540       22.7691798797       13.7360044246
  O        18.5826558247       13.1773095898       24.9763348834
  O         9.6577115793       12.7390024514       24.2026650337
  O         3.0999004258       15.3715736602       15.4954638379
  O        20.1341397887       13.6560184757       18.4864445356
  O         5.7707259582       15.4778587390       21.2239723938
  O        12.1875212725       14.1157194236       25.4889495086
  O        22.5848050565       19.8542142401       15.7592793573
  O        21.5407118015        3.6954333479        4.8663909630
  O        11.6255680171        9.1923408344       21.6794193978
  O        -0.4040888177        3.6839546246       20.2880958238
  O        18.7241780512       23.6632838015       10.4559267006
  O        18.4033099014       18.0252851040       10.9016148249
  O         4.2221756241        5.5481150431       17.3589737690
  O        19.8347041595        4.2086560473       22.5880946932
  O         2.5561117745       15.2093497267        8.1552624824
  O         2.7338721067        0.1839394567        5.7260137433
  O         6.5806500018       13.2769678691       19.2989213551
  O        18.2517834439       15.1545437744        3.4221092359
  O         4.6333974453       16.9509684227       19.5026175325
  O        15.2411481857       11.2487826870        2.5224390026
  O        16.4461031629       11.6475168701       24.7982486838
  O        22.9016505323       -0.7356840074       20.5056422185
  O        10.5425955226       20.2564560664       21.9366108314
  O         2.6279108914        5.2653414424       14.4164255452
  O         2.2645521678       14.1380003764       19.6907050411
  O         8.0893823827       21.6275768906        2.9478963679
  O         4.1511699338        0.7228662958       18.8080217602
  O        24.2183693538       18.5708478884       23.4810058084
  O        20.1427264496       13.5217098165        2.9945644082
  O        12.4514267546        1.2672968352       11.6921224688
  O        20.0780990494        3.4496397135       19.9335701170
  O        15.6005096100        5.8179682083       20.7846004841
  O        20.5121396783        1.7469806913        6.5396630359
  O        20.4527887189       20.9750396994       14.6462967026
  O         4.1276698996       19.4068183165        8.6487332050
  O         8.5798251992        8.5823059060       22.7031814358
  O        22.8625218705        0.9330437809        5.2501144828
  O         7.8162097015        2.0970500939        0.4437769259
  O        16.2727677850        3.9655819395       22.4377911307
  O        10.5788030942        0.0496580689       10.0800366282
  O         1.6149998310        9.6966324592       16.1635431031
  O        13.8343033882       17.8836555816        2.9456594021
  O        16.9393887282        1.6487137054        2.8116706062
  O        -0.0742559068       20.1653795472       11.8548776642
  O        10.3049935667       10.6545599817        3.6979678901
  O        10.2049016667       20.5423918292       13.9918228485
  O         4.0285196317        0.2967514362       14.0071997629
  O         5.0099737362        8.0805003817        6.0347090348
  O        14.5699880559        2.7792402721       11.6904288971
  O         2.2702253615        3.3849993429       12.7578805613
  O        22.2367074411        6.4644793319        3.1764080384
  O        20.9112051301        9.5020339020       23.0171403297
  O        10.4443278452       23.0071270462       13.5385993180
  O        21.2094041529       20.9780277477       21.3098927114
  O        22.8562376341       17.4804441154       16.8133507391
  O        20.6376535342       13.6599423276       21.1856688340
  O        -0.3307055564        0.8813999209       14.7539257194
  O        15.3088520046        0.6904670198       20.8925566983
  O        22.3182240359        4.4335335307       15.9926263003
  O        12.0808932525       21.0578091243       18.0623238749
  O        16.9924871044       21.6958201134       10.9187052644
  O         2.0118841048       20.0720217427        9.9950113593
  O         5.5148469734        1.6415048479       22.2201153702
  O         6.2485724811        1.9300938275        7.2053463520
  O        15.2653390027        6.5645376287        6.9685786337
  O        18.9827778263       17.5766440345       20.5936398571
  O         0.8519634857        4.5089129644       10.7090961815
  O        15.7967709232        3.7646076563        4.0763928869
  O         4.1013083925       18.7429514951       11.3289669566
  O         7.1681400476       13.1453336294       23.4975553871
  O         1.0973431027        1.8586052675       11.1151883724
  O        -0.4312592228        5.5649983771       16.1713745334
  O        14.9326579977        2.6990871911       24.2161207468
  O        13.0017632502       14.8667763535        2.6741643216
  O        11.8596670198       22.7622779053       20.0033238335
  O        14.0969363462       10.1066407036       20.4804033311
  O        14.8501539850        5.0886676161       10.7341311995
  O         3.2787977713       17.5887042496       17.0484876829
  O        22.3732336283        5.7610061256        6.2899590378
  O        19.8624073534       21.9832918392        1.4164541658
  O        23.1121191457        0.0817407056        2.6900448824
  O        23.2655187314       12.4913688286       21.1620616227
  O        14.4826918127       22.7997526519       11.9704023115
  O         5.0652808239       10.9700650024        3.1000746537
  O        -0.2834122030       -0.8600512852        4.5420123930
  O         4.4951631389        6.7482433990       25.0486566024
  O         9.8306100818       -0.0924948775       21.4571834825
  O        21.4408094353       16.2429903609       25.2321717342
  O         2.7011900407        7.3524402730        4.8770444285
  O         7.6787570774       17.5198169368       23.4137386511
  O         1.0947217170       10.9002685696       20.5155535024
  O        20.5913969634       -0.6116267212       15.3471690455
  O         5.5134932684       22.1869504144        2.3231767063
  O         1.6010318619        5.9056070708       21.9612941071
  O         9.1985216550        5.0614450284       21.7984883964
  O        18.4832414170       12.9288571695        5.0528301143
  O         7.6407470190       22.2770395649       17.8740721797
  O        18.2159398583        2.4057296200        7.9644038541
  O        21.2389050942        8.0412655478        6.6132914379
  O        22.7986944308       20.6127622929       25.6188287945
  O        -0.3776307717       15.5652467863       24.6475235665
  O        21.9373810802        4.9169244313       24.1901425978
  O        18.6970228837       20.4435245418       16.6304078533
  O         7.4045048570        9.7964148595       19.8337507466
  O        24.5118778865        1.3324884124       21.1386399261
  O        18.1075312512       13.6476709986       20.2173476460
  O         8.0827044055       21.5839212638        8.6825340561
  O        22.1196411964       13.5018567293       23.3632876589
  O         3.0947252464        5.1434161425       19.7587771828
  O        21.2071200069       11.0581166372       10.3152908511
  O        11.5940462191        6.4606374611       22.5441237534
  O        16.8037836261       16.4274903099       19.3742808196
  O        19.2775055565        9.1530861909       19.7533018719
  O         2.6614066520        7.0075915690       12.3803935258
  O        20.8229939274       15.7357266787       16.6911013445
  O        21.2810121631        0.4804560434        0.7189736985
  O         6.6394943331       22.6048957512       15.4870331382
  O        11.9902116239       20.3582459623        5.3797773364
  O         6.6513255217       12.7668760911       16.7468235205
  O        14.9163859332       24.0168406130        4.1240499328
  O         2.2191020589       21.3350313850       19.9824424310
  O        18.2983933229       22.5697779918       15.3687303664
  O        19.3409747392        2.8208248271        3.5504236841
  O         2.6748629030        8.2018266293        9.9019873554
  O         4.8025869248       14.5072062900       23.9527892014
  O        21.8053259834       19.5215173059       18.2797804437
  O        23.7695100039       17.4812763731       20.0727268980
  O        22.4396581250        9.2809043702       16.0270852213
  O        18.7674791165       11.0735058880       23.4859633217
  O        17.4060082673       12.7927215114        2.6406007535
  O         1.9386062011       19.0397020340        4.4194839152
  O         1.5144429767       15.7453259687       17.5901602393
  O        22.5885336753        8.9751314290       11.3886672006
  O        16.5949994351       22.0892551051       13.4378209712
  O         4.0515951066       15.4437000403       10.4775353032
  O        12.9358469358        7.6680503484       16.8822917158
  O         9.4975983769        7.8927578386        0.5726149068
  O        -0.1579049459       21.3391982999       14.4142134810
  O        22.9923461488       11.7453523209       13.1361528159
  O        12.8909624310       21.3767998193       22.0670063719
  O        12.4804954495       15.9962509891       23.3255447186
  O         2.2121455562       14.7997818084       24.6235441525
  O         2.7720909006       12.3733750263       11.1902609059
  O        10.4909986024       19.1979516943       16.9583190689
  O        20.4973272547       17.8164935924        7.9617862945
  O        20.9645607428       17.6665723181       22.3907023245
  O        -0.2437893249       18.6920702816       13.9237045392
  O         5.2778070511        1.3399962037       24.8481094974
  O         8.1910331715        1.8083180528       21.6780263166
  O         7.3313709299        6.2136476248       23.4705794541
  O         1.7921591915       16.7547243064       20.0390173056
  O         6.0620061882       12.9686920815        4.6119563235
  O        12.4721826801        5.7894911707       25.0172522390
  O        13.7943271714       19.1314046992       20.9950575101
  O         1.8672475095       23.8885533217       14.7495612365
  O        18.1966857214        0.6825755075        6.0519815930
  O         5.2808460243        2.1246545297       12.8638667751
  O        21.9972439051       12.8500387399        1.1656878159
  O         0.9628200495       21.4329885751        4.5195921327
  O         0.5499378327       11.9631391595       17.0426425550
  O         5.7521805453        3.8283961915        0.4433199494
  O         3.3737472553       23.5491980191       19.3957317830
  O        12.5774046582       -0.6784761809        2.9484160958
  O         6.5051302792        1.0093783590       14.7438482322
  O        22.2280173992       22.2007326986        5.6054147224
  O        17.5409610914       23.6247527884        4.5410289367
  O         4.0235349023       14.3530627289        1.2419815879
  O        20.7336151653        6.4486528231        8.7077973542
  O         2.0118883367        1.2014972307       17.4489132935
  O         8.9588519780        2.2020090982        3.6501987841
  O        14.8735261475        2.9170101136        1.7397754326
  O        22.5297917292        5.0642370107       19.7883125733
  O         6.8979013169        4.1898119795        3.4171819790
  O        13.2080796812       23.4549430096       17.7815140697
  O         8.9025634034        1.9773125754       15.8768967727
  O        10.9420715887        3.0562922421        5.8019263892
  O        12.1781267564       13.3478180003       23.0912895395
  O        14.0521108186        4.3326023371        6.6050858621
  O        17.4835867555        7.5405604390       20.0640908752
  O         4.2865539378       17.8454385410        4.0558830335
  O         5.8847819290        8.3571179024       22.7217860750
  O         3.4015226747        5.6978052744        9.6681700317
  O         8.2958631139       19.9044709061       23.4603496547
  O        12.5789089790        6.3387528650        7.3980475282
  O        20.3242018096        6.1062017563       20.6991958702
  O        18.9887747459        4.6371208081        9.3640221956
  O         1.3992641589        2.9017861681       15.2079624572
  O        19.6461678250        0.1610721698        8.4045837001
  O        11.3514173841       10.8007983111       24.2677432914
  O         4.2129269598       -0.5136730153       23.1268349025
  O        13.1481757233        1.5305603219       21.8406489016
  O         3.5731590467        7.9908317110       16.2399655600
  O        12.6873346232       21.7528863298       14.7361085639
  O        19.6594837756       21.3916412083       11.4813133185
  O        14.5019376268        3.0433123286        8.9009066709
  O        23.3873255301       13.0136660220        9.9739887920
  O        16.6540553683       20.9457881376       18.2994816340
  O        14.4480411554       18.8277657362        0.5890612646
  O        15.6507921385       10.3203626450        5.0333307048
  O         6.0780526063       24.1756468371       19.9614077805
  O        22.4595272230       15.5206700465       18.7187249249
  O        16.0437468669        7.1429725108       23.0731053841
  O        19.7310157683       18.1051218117        4.4972859529
  O         4.6418964348       14.1809255520       17.6400261732
  O         3.6196950978       17.1177349603       21.9807325833
  O        19.8101072429       11.6535408015       19.7839438604
  O        17.4958132904       -0.6303322870       22.1684494761
  O        -0.1788935695       15.0181100076       19.4243438638
  O        24.4133287980       13.8422277878       14.2520077933
  O         9.7805865398       17.5970848780        2.8244982417
  O        16.5305769625       24.2075829987       11.5966270574
  O        17.3736215825       17.7884423344        3.2434065674
  O        14.3877612633        1.4091902216        3.8163994832
  O        19.0156897820        1.6719651574        1.2165892468
  O        15.0579974306        1.4379154708       18.3999300216
  O        10.1700431240       17.2131051512       22.8559302247
  O         3.4988527734       12.7558908870        8.4865287799
  O         8.6321100494       -0.3570385669       14.5913985415
  O         5.0903084332       12.6208260537       21.9682985763
  O         4.3669750946        1.8760806412        4.3540283439
  O        18.9747931863       16.9329306331        0.7606422983
  O         9.3338787436       21.6746166065       25.3215985459
  O        23.2797448064       14.9539868781       16.2454287820
  O         1.2369308770       14.6445345350       10.8511503153
  O         7.9330903854       15.0866730706        3.0168086347
  O         5.9751436520       19.9402925561       23.0310346997
  O        17.1308404938        3.9933551376       24.8437937253
  O        -0.2317363133        1.7631288260        3.6850528479
  O        -0.0179870107       14.6020409781        4.5863689257
  O        23.6360023537        1.7851313917        0.7470915394
  O        10.2491837442       21.9428928308        4.3560299608
  O         8.3816645458        9.9618334845        1.8355916302
  O        22.1800633156        7.6521917470       19.3326515279
  O        16.1596303560        1.3299501448       15.7412498583
  O         0.9322267254       20.6169197757       23.3396452857
  O         6.2426747504        3.1147140513       20.1563722253
  O        12.7971234839        3.6550085131       20.3896071333
  O         0.1235329911       17.0274368516       10.1161294091
  O         2.0846943640        2.8967435803        4.7959473662
  O        23.6283968862       10.5424882401        9.4283609098
  O        14.7566570369        7.1081013144        0.3595087912
  O        11.2831317889       -0.0170789104       15.2628208494
  O        15.3201713367       19.5497675925       23.2864051205
  O        19.5092335183        6.1349037444       12.5538048502
  O        11.2739204599       -0.2077193841        0.8001566567
  O         7.5215611723       -0.2172115377       16.9092094585
  O        23.4418155318       18.6708028864        2.2690593370
  O         6.0753042084        7.0729930949       16.5069948164
  O         6.6540664905        0.5179315724        4.5261837417
  O         7.9494035149       13.9301516294        0.7923422937
  O        20.7504841168        4.1048716157        7.4661805553
  O        19.0439607831        1.6156361021       15.7730997152
  O        21.4683056287       -0.4608910748       10.2647058805
  O         0.5342584551       13.4957114933       23.0632619984
  O         6.8947689968        3.7314719385       17.6005434523
  O        10.9991178492        0.8563650259       23.6162911211
  O         6.8791502460       15.3726332994       17.4669703937
  O         1.0751101210       10.6187600747        7.0941697577
  O         1.2655236821        9.2416546391       11.8023601095
  O        13.9914228858        7.7547229213       21.6856198798
  O        10.0533411149        5.3709104788        7.0316261230
  O        -0.2143613741       17.1251436266        3.7375639617
  O         5.5888194545       21.6803598421        7.6299824340
  O         3.3528162250       19.1922311536       19.2389017866
  O        -0.1209033440        5.8291488473       18.9213692854
  O        16.8002973767        0.0876840956        9.1744427872
  O         3.6428800018        4.3587658411       22.3049858974
  O        19.8877835887        1.1159375981       13.3724196713
  O        21.7086986922       11.3322829400        3.4381915382
  O        12.0367399233        3.6742589268       23.1288479645
  O         6.1703252212       19.7121505016        3.0951522485
  O         4.1757567813       14.1944947406        6.2484220522
  O         4.8941339489       20.4738988008       13.0746337363
  O        13.9475266489       18.3110596416        5.5349482627
  O         0.8975040202        8.2864845063       21.2133239081
  O         2.4529280282       11.9278400384       15.0942118999
  O        23.4499846893        7.1828150855        8.4166421884
  O        16.2115173966       19.9344767296       20.7250613905
  O        24.1455043603        3.6179727798       14.2829102964
  O        22.4583846504       -0.2927213778       12.6119256993
  O         8.2501117205        3.4169388891        6.5270258727
  O        22.1023197349       15.3073204129        9.0200133212
  O        21.5420950009        8.9912478301        4.1954798302
  O        19.4467819002        4.6586301842       14.6137051881
  O        20.9179194233        9.4901176267        1.5442572249
  O        20.9168280684       16.7248404295        2.7098363874
  O        19.1207958214        8.8186395663       24.9656039880
  O        21.5376342489       20.4500188113        2.8151020740
  O        19.3121950517        0.3494991151       24.1107728893
  O        18.5470293955       24.1647647848       19.7772059179
  O         6.6344123839       23.6296649136        9.2402312024
  O         0.1995662850        3.2332482217       22.9245988815
  O         4.4860666749        9.9147986031        7.9628687616
  O        15.1415040624        0.4655360587        0.7707967324
  O        13.8529021358       21.0166782309       10.2400599431
  O         0.8879443773        6.7695638589        8.9052586458
  O        17.4496550412        1.4615192315       19.8302948693
  O         7.0221428613       20.5219145281        0.7615483612
  O        17.4670203448        3.1927256198       17.1393057649
  O        14.5299480791        8.6628205194        3.3232092797
  O        18.3163297233        1.1012978860       11.1303855613
  O         3.2041163998       20.6369896822       15.1375838981
  O        18.7727059521       20.0294357079        2.8622255772
  O        10.8542542425        5.2168582617       19.5085184740
  O         2.2490173491        8.9880902115       19.0938750151
  O        10.3863044547       11.6225699936       21.8365310798
  O        12.0546678984       17.1264294506       21.0099564089
  O        17.0469751254       23.4350121897        7.1693887838
  O        17.0714737162       18.3512245809       24.8609375806
  O         4.5831553557        1.3760089568       16.2982636594
  O        17.4094022488        6.7252434418       25.2846492438
  O        12.0474118072       17.4713591256        0.9784895703
  O         4.6763525328        8.0696761850       18.5359535389
  O         8.7898854203       15.2422636681       23.8838027052
  O        11.2823659357       23.3556948507       22.6712680945
  O        10.4300067713        2.3719848657       25.7147770596
  O        16.4963808300       22.6822659720        2.3556075549
  O        20.0206872321       22.0943864817        4.0056269431
  O        16.9658510125       -0.5796734038       14.4134578706
  O         2.3878699776       21.0482987753       12.5582826732
  O        22.3226062852       17.9633529688        4.6467464824
  O         3.5975575607        5.8361348146        2.2065290678
  O        12.6479415659        8.1418513022       19.3767401640
  O        21.6581263529        4.2981535202        9.9840215006
  O         3.7563705147       22.6178025444        6.0960010576
  O        13.0319796963       10.6142036417        4.0193246987
  O        18.8490074615        3.3897999989       12.4421648866
  O        10.3536188240       14.5731559225        2.0809830041
  O        17.8395388716       18.5472823214       18.3944697305
  O         0.6273216980       21.6589996311        0.6394145542
  O        12.9564977091        6.8367699867        2.3293798064
  O         3.6877293703        2.4922525238        6.8323843587
  O         9.2562187216       24.1291354224       24.0137299635
  O        15.2980019576        6.1604342845        2.9309228610
  O        20.2316258036        9.9932518316       17.4598417387
  O         3.0845909284       10.0376098113        5.4991605389
  O        20.3521389995       10.6713223423       14.7258824389
  O         4.3801179214       10.7527453515       18.6536081765
  O        21.7359251917       14.7138309247       13.9997662144
  O        14.3603622492       16.1546202154        0.9302976708
  O         5.7271532115       10.6050972786        5.7516177011
  O        16.9783123305       -0.7481351516       24.6733426364
  O         1.8377841357       18.3406677883        0.9424836619
  O        19.9105582002       21.4260616252        6.6157253209
  O        19.7227908992        5.5068643034        5.4719618368
  O         0.2331746735        7.4715161681       23.6015328399