LAMMPS data file via write_data, version 29 Oct 2020, timestep = 4000000

2176 atoms
4 atom types

1.5693198033287425 29.276880196677425 xlo xhi
1.5673967044710162 29.24100329333237 ylo yhi
1.8760794903031275 34.99972049069668 zlo zhi
-0.00033809688562931833 -0.001040609872633416 -0.00023125935187027957 xy xz yz

Masses

1 12.0107
2 1.00794
3 14.0067
4 65.38

Atoms # charge

203 4 0.8870562569361957 4.2043315255056095 10.819484932429793 9.397658992666205 0 0 0
622 2 0.2198873399676981 4.810098296813246 12.3064316344303 4.134287826532067 0 0 0
1113 3 -0.38304038186314804 8.473749745477175 7.491043879558218 5.137788312518808 0 0 1
142 2 0.256968258230426 9.99183434505781 6.18682736803689 3.509264071603976 0 0 0
222 2 0.1815428481240404 7.676338642229282 4.722958291691957 8.101663041703102 0 0 0
774 3 -0.3965859647903448 8.909019726044555 11.993211296827628 6.757216297650766 0 1 0
753 1 -0.12711178818855115 8.626676603606237 12.993772267410902 7.591653625680055 0 1 0
564 2 0.2411405112923202 5.622750474904451 9.978252701027515 4.392917299855337 0 1 0
641 3 -0.3453993503021174 6.219435159437773 11.763933477606344 5.689341273569841 0 0 0
1444 2 0.261917877774575 1.6307646774625408 3.0858973119818254 3.529357307411458 1 0 1
39 1 -0.14375266494681044 9.663430489985151 3.0532812126979847 5.838780074664648 0 0 0
620 2 0.16785034684776287 3.54792232881913 14.562022787645455 2.2773201817511377 0 0 0
1114 3 -0.35910780511657614 10.6199362644653 7.536824975529665 4.940608505998329 0 0 1
563 1 -0.1369633202666399 6.069444661642943 10.066452743586549 3.3867831498162553 0 1 0
1096 2 0.22025308454936407 8.126741314233618 7.0045399908123045 2.9426608178948115 0 0 1
411 1 -0.13131295791555284 10.735799131327322 4.295192017122408 2.4024126524835365 0 0 0
1091 1 -0.15705130136066783 8.715886254847563 8.463457830263584 4.303469625335529 0 0 1
223 1 -0.13110601040294445 6.2657600871919845 7.669378372104274 8.657593384289925 0 0 0
1090 2 0.19388435300418067 9.709715789115757 6.046940845314318 6.215297965307942 0 0 1
21 1 -0.10283063698444286 3.3728895139741137 7.616616108444259 6.665874966043206 0 0 0
1121 4 0.8976806027344387 6.359274249894268 6.920449807545771 5.733677637353182 0 0 1
371 3 -0.3591860629859569 2.6328571237394143 9.287222259209718 9.993364215628855 1 0 0
1095 1 -0.15282850522440414 7.145409359484547 6.526359170446041 2.6590186030554857 0 0 1
169 4 0.8628746645199967 6.7759446492967355 1.725231756447008 5.2971628679139435 0 0 0
621 1 -0.12267602518256672 5.047834282031613 12.050440849481474 5.199259081942076 0 0 0
1756 2 0.24606998033424757 4.001122840054574 2.6204661275937107 7.167870812312032 0 1 1
1026 2 0.23359499732775554 7.896226170661317 13.758645039671777 7.245436785086929 0 1 0
813 3 -0.37711180147267737 4.88553196658002 11.397886757642567 7.320004411307836 0 0 0
1339 1 -0.07174509509123284 7.605654117819747 3.040939456684959 2.408150421932983 0 0 1
773 3 -0.3736304236793823 9.731889147789078 11.478552211363683 8.743612268879982 0 1 0
125 1 -0.1276604464931409 2.133916505025942 8.165055808421073 6.225345183757457 0 0 0
480 2 0.19612101746819424 2.1746935636722364 12.610881164233254 3.2506958726692887 1 0 0
116 2 0.19368734901665802 4.060616987085359 8.195661827192193 3.5698970166019617 0 0 0
798 2 0.22792653138821767 3.057264136998181 11.716069200834296 6.335126808126528 0 0 0
64 3 -0.388140120260005 1.9499900835710227 2.4639212394812167 8.243139148049693 0 0 0
68 4 0.8686260950701439 8.270869815817731 11.822561891847592 4.597847408263926 0 0 0
236 3 -0.3795699185608081 6.631434400807154 6.7313651017147285 7.810253101811512 0 0 0
1251 3 -0.38345666776428966 7.655404737963258 1.9258130429538811 3.1737269348292014 0 0 1
752 2 0.20331183643331605 9.01448211632245 13.170404990173088 9.857883441594002 0 1 0
1340 2 0.23014010050641814 7.120741229406391 4.0088951746612596 2.7157089834098063 0 0 1
580 2 0.2693279325921245 10.484168313937825 13.678772037602482 6.716730594223817 0 0 0
623 1 -0.028187219284492263 6.178207173411894 11.444005103998741 7.002121415208364 0 0 0
1089 1 -0.07014802073241104 9.62743945247531 6.869219170525422 5.5149944177203 0 0 1
698 2 0.22774062546224738 1.7049497373776996 11.8403621847527 7.440141960133113 0 0 0
1116 3 -0.3652210107203836 6.155390991533079 6.466127222158079 3.4858626138208457 0 0 1
27 3 -0.36113413361473373 4.207520247455804 7.585830817025881 5.616858268006602 0 0 0
576 3 -0.4151272647379303 7.1323221937922 10.792342645958456 3.1299586586393375 0 1 0
40 2 0.19957451787268454 9.272883237554844 3.80560699487564 5.1060391473649 0 0 0
1092 2 0.24539297952461672 7.901091076889026 9.090589373633074 3.8305719027128284 0 0 1
749 1 -0.04004606289036779 9.621431390225704 11.086772975758082 7.448069990127675 0 1 0
1662 3 -0.3323932971140952 3.2419627856130484 4.1288151033589795 4.3650061711671695 0 1 1
603 3 -0.36308795905900426 9.993661146834585 13.252634674547833 4.537246715463381 0 0 0
1646 2 0.22818288401824777 4.926778270520887 3.4821179491194787 3.141228248399225 0 1 1
224 2 0.1991372244863191 5.877140364052364 8.6409267863931 8.416397491959026 0 0 0
619 1 -0.16505446494709267 4.276424763254771 14.940370708846762 2.9430255834800785 0 0 0
1761 3 -0.38933257404492333 4.843435650041539 2.9290906961165715 5.20182364623843 0 1 1
1655 1 -0.11126603389079724 2.8982799067899 3.78873807248725 5.573208582727041 0 1 1
132 3 -0.39528586142781835 2.314869170665006 8.455179954924764 4.938385305745511 0 0 0
41 1 -0.12778748711158391 6.5810449554434465 7.146618942265529 9.955778018534474 0 0 0
62 3 -0.3650793939253381 7.136622544899303 5.962629473289873 9.784216522853937 0 0 0
22 2 0.21693898798107739 3.6637748437162716 7.330346409050476 7.701927442303115 0 0 0
115 1 -0.04326583776778067 3.5846280323280237 8.13673750330221 4.577214015075191 0 0 0
1645 1 -0.06780821541586358 4.423590287968298 3.5237790475631967 4.074974340291595 0 1 1
221 1 -0.054864299290218035 7.177264855449251 5.67396028089945 8.476317598341636 0 0 0
1755 1 -0.11742089831109093 3.92691038048398 3.0133728959589527 6.166424228993548 0 1 1
624 2 0.2558992367687297 7.09831608669097 11.272667959536388 7.630562058662212 0 0 0
60 3 -0.3747336639945717 8.903796667553163 2.0316360835871596 6.170679805443512 0 0 0
1656 2 0.21521064544342886 1.8304445395465367 4.125850291228572 5.942297324580141 0 1 1
1344 2 0.2604884610364279 4.084919884330407 5.711281394705408 3.405991209248483 0 0 1
751 1 -0.15381318101564911 9.134853328503203 12.648385092032198 8.892202841205455 0 1 0
190 2 0.19918961810536792 3.693328269820348 14.63605410663628 5.177647089114228 0 0 0
712 3 -0.37526315518442716 2.5721288322736613 12.153441284873312 9.452749643488227 0 0 0
797 1 -0.10962835951671254 4.137759621292403 11.758454646211922 6.27847914351442 0 0 0
697 1 -0.034745373470861436 1.7967451350613275 12.410139283938653 8.365743930255185 0 0 0
57 1 -0.1405040348411715 2.95625334234918 1.9886726059793685 8.949588176788907 0 0 0
1343 1 -0.06379674604195325 5.040617283885295 5.929118108395271 2.9163888347306193 0 0 1
750 2 0.24693684869032603 10.096797347040104 10.25270842811906 6.934077855691357 0 1 0
1093 1 -0.1554224318203918 10.141422060371012 8.511900571932577 4.167631999307161 0 0 1
95 3 -0.3637161560773269 1.985262511728919 3.7311464885516097 9.985201086816172 0 0 0
189 1 -0.13870681281780234 4.354053731564925 15.045110145005028 4.358864743244544 0 0 0
581 1 -0.13707256575435206 10.512057259394995 13.750372716963975 3.439397049512556 0 0 0
59 3 -0.37586873336631754 10.708236363020557 1.8241342737336894 7.2710860328493965 0 0 0
582 2 0.17797783538454168 10.191290121704723 13.493249159817571 2.3637290866390375 0 0 0
245 1 -0.13060363640009284 5.7088481181368484 9.486748899803805 2.1265166711606303 0 0 0
413 1 -0.1123339305153261 10.797552018482127 5.500382618791234 3.1735153963418488 0 0 0
590 2 0.23076498001342927 10.578260259261771 8.04428358007229 7.782996011353485 0 0 0
579 1 -0.020754300644360457 10.6525647945017 13.814836907445644 5.618253977895891 0 0 0
89 1 -0.10651300962373308 2.9931000908628502 2.856862432759567 10.076050815511653 0 0 0
1366 2 0.17791691463363268 10.763795556063107 9.18894356219531 3.50223917055942 0 0 1
484 2 0.20608756019231958 7.375979022451449 11.357701695669261 10.084666620638117 1 0 0
246 2 0.19119078854926425 5.020604181756736 8.655733334887016 1.8984769082677675 0 0 0
412 2 0.23206741590336571 9.825807772983527 3.754010637965247 1.9636159612427644 0 0 0
504 3 -0.3958026503790041 5.711482605306283 10.239576586706024 10.884826720252784 1 0 0
1502 2 0.2203332171054259 7.339706036073662 6.196225335931545 17.084312503802526 1 0 0
72 2 0.21926603903418457 6.134005008921411 4.071204921885731 14.03749562696935 0 0 0
179 1 -0.12184760251609758 5.9211013342913335 11.062998547437731 15.118115989984583 0 0 0
93 3 -0.4009184013839041 5.806331395991307 4.707846539186067 12.134311060721036 0 0 0
31 3 -0.37238705242401254 4.195851322371352 10.838236096855761 16.441682605469776 0 0 0
66 3 -0.361167930386573 10.569222611683347 8.19227942948238 10.954520250607148 0 0 0
181 1 -0.042157565378357006 4.705545948063933 9.631394474942326 16.2406874230598 0 0 0
16 2 0.2509135068154396 4.6610146783289546 12.832111381065333 15.745578827418207 0 0 0
1294 2 0.1696444198005599 7.717319415852132 13.28644303500506 14.620698897865337 0 0 0
699 1 -0.1255361245577955 2.2608579975907683 12.918752676149323 10.47289440313725 0 0 0
700 2 0.2182645424573863 2.8666456555855917 12.891837908500518 11.405195514151215 0 0 0
176 2 0.2059052813760916 3.2947367894783133 12.804105226254409 13.503645128451861 0 0 0
94 3 -0.4033054558379006 3.6509684815595556 4.9249694759764475 12.121520395136914 0 0 0
85 1 -0.03308865655207352 9.952403052499221 8.051181918457909 15.790908468087123 0 0 0
199 3 -0.3676491776817635 5.763631249721193 9.783888243987498 15.401964420461832 0 0 0
1229 1 -0.12507544104943116 6.3838475814436455 5.959049964522338 16.64965948757996 0 0 0
1530 4 0.7392976703680526 2.572540893984743 3.9689409173540864 16.19894807170149 1 0 0
182 2 0.24744838596918783 4.3896863316605215 8.676551248082335 16.682199993437074 0 0 0
71 1 -0.11596667032262632 5.409938743827863 4.395588411629574 13.309416696377417 0 0 0
79 1 -0.06277666162110873 9.827470374926415 3.8333018548516553 13.927479557694241 0 0 0
80 2 0.2169400732369432 9.409953411228386 4.500617974555116 14.688264438106891 0 0 0
90 2 0.24900703756361112 3.748838673832301 2.955861067742271 10.886060865782726 0 0 0
346 2 0.14719338577371174 3.132322570292295 4.237242706868041 14.015215801869457 1 0 0
1226 2 0.2039298922294624 4.089210026669487 6.444868510556709 14.4229130174032 0 0 0
1247 1 -0.12967805401326604 9.174105008682092 3.73229453132108 17.42523828272276 0 0 0
276 2 0.22036130735006026 2.5969998774106626 13.979406729609755 16.130370596972714 1 0 0
42 2 0.21368090498081446 6.505098821311191 7.518468466372523 11.048069498635568 0 0 0
1249 3 -0.4050418565981206 4.4183731734746585 5.144632603707298 16.18894215962437 0 0 0
1248 2 0.19507762183503033 8.574330328495863 3.1753477730627715 16.65726089901814 0 0 0
158 2 0.27119400037703434 6.113538087817327 11.190729350816886 17.7228800353674 0 0 0
253 1 -0.14649189111184832 10.320063770141026 2.9593991952976237 11.981231959890316 0 0 0
868 2 0.21411777360600245 4.5269454877373905 8.98689563551319 12.163919291999711 1 0 0
254 2 0.17143987401110536 10.2499484309515 2.8338828605636346 10.882022844188882 0 0 0
15 1 -0.11671142223603578 4.847560215652215 11.761753658464247 15.76066227435752 0 0 0
86 2 0.2532427648889642 9.63693831743116 8.785524576382063 16.54226393910635 0 0 0
269 3 -0.3974781394788486 9.46278013577288 3.7167155296823884 12.650257846048863 0 0 0
1427 4 0.8957689165406187 2.3388827822211264 11.382338543306702 17.695296285794676 1 0 0
882 3 -0.39583267712846915 6.684351479082177 9.389114320316367 12.6120785679442 1 0 0
70 2 0.22952734926957996 4.704743089628978 5.425696076848315 10.304172925833857 0 0 0
870 2 0.184409158524194 8.568420887457915 10.37662305944746 12.526081613616087 1 0 0
1317 3 -0.3960836408487463 6.0355855499572 14.51831478830287 15.11075163079485 0 0 0
1257 4 0.8717382950821185 7.096902304957754 8.150564163809207 14.488293770081457 0 0 0
867 1 -0.057205378529437224 5.510646068903559 9.449034272797045 11.93666179784274 1 0 0
1297 1 -0.10298672750556924 6.266793219622872 14.320073183238367 17.259187581329545 0 0 0
776 3 -0.3835774752654054 9.565403305293698 6.340090702074752 11.471424401195234 0 1 0
815 4 0.8776137420447876 8.947223700165525 12.820146599903842 17.76655700018273 0 0 0
175 1 -0.1395020904415714 2.6843999242398144 13.678558668715992 13.560305379328993 0 0 0
1227 1 -0.13100945093144983 5.355838396574347 5.0430843535451295 17.09360756546712 0 0 0
198 3 -0.4194298585437401 9.136098160665306 7.5200112669206085 14.860856223165904 0 0 0
180 2 0.20507241921297456 6.6467810918380135 11.444860446722133 14.394682436996774 0 0 0
69 1 -0.047614986380860556 4.760149765840582 5.07321930290752 11.353693117591742 0 0 0
869 1 -0.16978884389369403 7.596919558661135 10.15146297828406 12.074544234020413 1 0 0
1250 3 -0.36374978476331826 5.916420593993714 6.5776583471657 15.595808573750011 0 0 0
73 1 -0.14585078193674017 3.958574488039837 4.436396454255376 13.28008561812267 0 0 0
297 3 -0.4052444799966119 2.35033515169519 13.456958275239534 18.145454004883582 1 0 0
177 1 -0.10165589487716382 9.797897837280914 6.63306468333296 14.146860444637742 0 0 0
483 1 -0.14049548468933626 6.968446492524941 10.69137701334047 10.91550736705631 1 0 0
1225 1 -0.05946985532483016 4.6940067740994476 6.118815777021365 15.296132736300454 0 0 0
522 2 0.1918642787829993 3.884215417509736 7.459884134383707 10.177924725356805 1 0 0
1318 3 -0.3766644772021418 7.274795854783356 13.672879583565694 16.671545000694593 0 0 0
627 1 -0.15021140963105387 10.738764080011633 15.37818554247154 17.02495861800251 0 0 0
497 1 -0.12431715187180414 1.5692650545692066 10.496695542103707 14.852859228643768 1 0 0
101 4 0.8274331423693732 7.895243575615267 4.828010512115867 11.580342954332016 0 0 0
1293 1 -0.07588322215525942 7.092385885892427 13.707764082123115 15.347681607363665 0 0 0
1254 3 -0.3752144275714598 10.491661314146628 3.6929498668101366 17.443295783930424 0 0 0
178 2 0.24601195188801872 9.287702929264263 6.122056098367966 13.31897620870436 0 0 0
123 1 -0.14076789782637597 2.1091993398376174 6.969455092319945 18.300209281954093 0 0 0
124 2 0.16444803236619002 2.0297850512751077 5.874798675502542 18.017619593569112 0 0 0
538 3 -0.3844204361154467 2.754151676714959 1.8653502132790238 16.393182177158067 1 0 0
196 3 -0.37363021749728786 3.1883740846768283 14.891752103245823 13.461031160188936 0 0 0
521 1 -0.058287079907907435 2.887637326093459 7.9919677900783554 10.305440469323527 1 0 0
1782 2 0.21210290106265245 8.61293415360253 14.741866164325632 13.567548738224636 0 0 0
643 3 -0.3745588213030821 10.748368738213705 14.105880980193842 17.374018027895442 0 0 0
201 3 -0.41522708694836497 10.02202385990569 10.977137270876737 17.923212653926207 0 0 0
23 1 -0.15153494368279935 1.8348152154205009 8.19601382918473 17.597391320928402 0 0 0
498 2 0.22780980521028477 2.569272793142982 9.97176491029878 14.82199763098212 1 0 0
275 1 -0.12137035718123214 2.4808072909087215 14.363831479630862 17.1926550917239 1 0 0
30 3 -0.34652957998647005 2.4016673855120816 9.13025613128339 18.341530546643952 0 0 0
51 1 -0.02379607151648724 9.371787246584619 7.645053822710624 11.267617425276185 0 0 0
539 3 -0.3859560985181126 1.7436971821740024 7.4298369959143615 10.729359463880618 1 0 0
1228 2 0.19083154509446873 5.385861707417332 4.402315738707603 18.04162378604834 0 0 0
52 2 0.23064190440496563 8.400587156901205 8.224472231241608 11.137132958216142 0 0 0
918 4 0.8392397404508762 5.473985236687033 15.164840358136356 13.08062850994702 1 0 0
638 3 -0.37208815840306075 5.023559068859841 15.362092502235067 10.85572023392923 0 0 0
782 4 0.8753985506102305 1.5752631714433818 5.322815485327355 11.401819646113157 0 1 0
617 1 -0.12377368561129677 3.8323738051610783 15.260168728713046 10.406017026786976 0 0 0
1295 1 -0.130708763453345 5.515400162766627 14.983801651978155 16.237895526649176 0 0 0
890 2 0.2278569687700774 2.93372093819001 15.17010597225768 10.998835407133067 1 0 0
1570 2 0.23338363052059283 6.036298089190222 14.231580487823644 18.334428990941465 0 0 0
1138 2 0.1924686985194165 9.615009869851995 4.090221087289421 21.790613964585745 0 0 0
1153 3 -0.3866091270580708 8.635867351208546 3.5673178389658142 23.594239239246306 0 0 0
1348 2 0.224317138640059 7.773743391558254 4.913246327205001 18.86154895555765 0 0 0
270 3 -0.38710582482980394 6.400168585232971 9.421687541860976 24.005390409499345 0 0 0
7 1 -0.10454610277626362 6.535709953431633 7.277977971296718 24.34615349985448 0 0 0
1241 1 -0.04605622729683134 2.122033410500083 2.952844385994305 21.64682963990572 0 0 0
1196 2 0.17973407351837026 3.5229475351649917 12.715228495351376 21.213910380092493 0 0 0
262 2 0.20017763691669624 4.65565640209107 10.535966895313523 20.09491879902831 0 0 0
1109 1 -0.14897586592684273 7.997448635601681 15.249238724647212 23.964511173830704 0 0 0
261 1 -0.12302364335813382 5.590206638970816 11.106985176208182 20.009253757247212 0 0 0
256 2 0.22111464018318347 8.022846975001322 9.991283339137135 25.425425514001986 0 0 0
1123 1 -0.00547699204314424 9.21919838393072 9.348149150544872 22.230715819159347 0 0 0
1262 2 0.21885345274474166 7.1185536682720665 13.149200094327815 25.644102135784536 0 0 0
1202 2 0.21118899279938896 2.191880506691273 8.105949456288943 25.436977115289093 0 0 0
1234 2 0.21417577803069515 9.999063061515423 6.600460754987702 23.328306909131836 0 0 0
1147 3 -0.38480511619908064 10.206342583265105 8.665896125860872 21.685948301568295 0 0 0
1826 2 0.20777828988931238 4.950588348598663 2.7124522600526846 21.455611901983843 0 1 0
1224 4 0.8710124668076732 5.899845672215441 11.495416873256149 23.224294188112914 0 0 0
1203 1 -0.0704922156569372 8.57347213224662 13.250320303988387 23.28800030567487 0 0 0
1155 4 0.8633090196881458 8.81923839830173 6.7447613095977506 26.63694542861967 0 0 0
1252 3 -0.36442842651762597 7.742100623811166 6.926334418742742 20.450820887452643 0 0 0
1404 2 0.2593408003407979 3.0760172176627427 4.950611799848061 26.215545393849826 1 0 0
8 2 0.24990898658134406 6.425875229896538 6.166497808601585 24.37036285251406 0 0 0
258 2 0.20307443207559614 4.837097887356475 8.341625130255506 23.041328265143378 0 0 0
1209 1 -0.12041090430980009 5.808556991800454 7.518027909182345 19.574669340284913 0 0 0
1253 3 -0.36764828543055983 8.877486494079431 5.3684065943865145 24.762147742478817 0 0 0
1405 1 -0.07985980988851146 4.636838595946403 4.457477790866301 23.414288485595975 1 0 0
1347 1 -0.12948208221980698 8.785255823836838 4.561183262751189 18.53029733077263 0 0 0
185 1 -0.11712858929959026 9.924064528539718 10.116545599378888 18.918698028184053 0 0 0
1232 2 0.20230088546816397 7.978548886621496 8.391892990978967 18.95397180355826 0 0 0
1222 3 -0.37588577438272686 5.619449639084171 6.639393339317799 20.49996569017958 0 0 0
1216 3 -0.34764107871167843 3.7075145163732413 11.135188051119057 22.667999673682335 0 0 0
186 2 0.26127583603487564 9.163649646048269 10.261494091616434 19.678321246107302 0 0 0
1137 1 -0.14274353853268784 9.28085166037906 4.397366672969772 22.812840649402418 0 0 0
1148 3 -0.3338841761381901 9.699878234669628 10.55023081855238 22.657256511402938 0 0 0
1156 4 0.8490154289754044 3.486601773696012 5.821287233017073 20.849172734356017 0 0 0
1204 2 0.2349093086048174 9.214473170957367 12.390937147946122 23.0453165610186 0 0 0
1511 1 -0.15819399451836494 2.8181245074065697 5.574473042815479 23.950241658422332 1 0 0
257 1 -0.12320514678968185 5.750598163469401 8.323002920063209 23.70424453643556 0 0 0
28 3 -0.354589533543315 7.4315877225880485 7.884943822033346 25.084407534091806 0 0 0
1220 3 -0.3954379087460223 7.226990993257402 13.253726142978733 23.40282807151059 0 0 0
1527 3 -0.39155247822022443 3.6384856702637403 5.200009253449061 22.981039278259843 1 0 0
1264 2 0.1828751759893599 9.837603795800948 11.987191539570343 25.267102893097128 0 0 0
1207 1 -0.04469437820406591 6.781406702758379 6.248837945592831 21.075616201363186 0 0 0
1233 1 -0.12189024375029811 9.432589542793412 5.608123458103844 23.605387918663233 0 0 0
1195 1 -0.1539047581036149 3.0964182832757556 11.809181921558991 21.74551597793891 0 0 0
1213 1 -0.14690502361018004 6.808511199014131 14.431510716790699 23.758230876544555 0 0 0
1242 2 0.2333012290642181 2.270611797280843 3.1611280332032305 22.738290099313854 0 0 0
157 1 -0.1035068227115554 6.366468648809957 11.396725335423291 18.793295300843987 0 0 0
786 2 0.21016257409922168 4.812163860559503 14.660824807415713 20.435911062151135 0 0 0
129 3 -0.3906989896896908 2.767924833668506 7.309000061500188 19.38687204753411 0 0 0
272 4 0.8556164077615743 9.97542212507368 6.600611685489553 20.73275462659489 0 0 0
1192 2 0.18945065216018822 3.325263608766466 9.304759312335104 23.894978218368994 0 0 0
1423 3 -0.2641401384403243 4.489371438315721 4.3183498367681485 24.75529078860549 1 0 0
1235 1 -0.05223360062173705 8.390589300767525 4.136073721563561 24.797343195913 0 0 0
1191 1 -0.06801443122370827 3.000889485123568 10.066140178028636 23.10845876517825 0 0 0
268 3 -0.33926109687285316 6.30368895312345 11.632799633157637 20.982071678996007 0 0 0
274 2 0.2007309498776367 2.058972384280527 13.542876781079693 20.28489074002368 1 0 0
14 2 0.20634311531834548 3.470430660553774 9.173842567187894 20.287623663760964 0 0 0
251 1 -0.03131070430340689 7.441508128941109 12.149844460740555 20.53412946451832 0 0 0
1231 1 -0.11716586291090113 7.2427845582174095 7.7337132888432905 19.5558191911568 0 0 0
1208 2 0.21322157137595188 6.923451236748727 5.472232647363623 21.846868346638804 0 0 0
1124 2 0.283946338308416 8.211635893780647 8.983663761626476 22.23410975093779 0 0 0
1214 2 0.17078778221374805 5.724984481353685 14.546797390248159 24.02757220868093 0 0 0
13 1 -0.062197036705538195 2.935680194463412 8.652504544582621 19.45215545565711 0 0 0
1210 2 0.2438607959995108 5.0408527738548266 7.858396020081909 18.938885460021076 0 0 0
1256 3 -0.3781287367990794 2.4901179691930757 3.773733948839084 20.64979400772643 0 0 0
1403 1 -0.13074670518504083 3.372128426544483 4.981456136421983 25.117444436645968 1 0 0
1406 2 0.1817681879662963 5.436473062395705 3.952779785105675 22.821277744296708 1 0 0
252 2 0.22981760466137183 8.30328850203498 12.54927809716277 21.11567676267372 0 0 0
255 1 -0.05792382996846797 7.383475817633621 9.203975021602064 24.887263932148098 0 0 0
1586 2 0.23050330328643934 2.081334487591276 13.280322660515395 24.80320062262271 1 0 0
1512 2 0.18654565821961755 1.924670710144272 6.219744958625639 23.76669533966397 1 0 0
163 3 -0.39248170688575007 7.441147518357855 11.966204746029083 19.170401716787687 0 0 0
1115 3 -0.38006771206540685 8.963201375174737 14.482962576795838 23.64870385086597 0 0 0
1268 2 0.1780064574789909 4.391312977604943 14.008682897334849 25.71147859643653 0 0 0
273 1 -0.04219395380142433 2.1959399362402037 14.057419217667842 19.344535537486976 1 0 0
1164 2 0.19383290348161744 8.389191813651207 1.6672489413354157 26.15213335064034 0 0 0
1163 1 -0.14197164536623832 7.338853491566554 1.58493828450213 26.150850327662944 0 0 0
1554 2 0.19771852558408642 3.598625908258235 14.56268446073439 22.807214864259755 1 0 0
1236 2 0.23888130931259963 7.757724627203682 3.6979256512987195 25.58394070792014 0 0 0
1353 3 -0.35409536628526406 9.910011966766845 5.057615454341089 19.03384297571221 0 0 0
1193 1 -0.14331212409076383 1.8237035528350023 11.09098480329122 21.597700816385917 0 0 0
1263 1 -0.14746268198342213 9.141015778001224 11.995150704172328 26.12135327514581 0 0 0
1261 1 -0.1412873723092258 7.817816772581768 12.5643240466416 26.305500256655797 0 0 0
1215 3 -0.37226802417872723 1.858549117293073 10.0776149790204 22.39044330615638 0 0 0
1553 1 -0.1238046066250367 2.534599562104055 14.656104597569987 23.03027333214444 1 0 0
1178 2 0.21029272292438242 4.297447380876924 7.62166658912056 26.285011698553568 0 0 0
298 3 -0.35250061027401747 2.305053744780667 15.390313439911596 19.146985489675878 1 0 0
1243 1 -0.1392851244562361 2.193658858516878 3.219707642579637 19.49521658116349 0 0 0
1103 1 -0.12512517428049452 2.729284044458899 15.352829811121387 26.645256745587453 0 0 0
1267 1 -0.13930045321475026 3.7696793075769457 14.379051916018811 26.537977506397976 0 0 0
1146 2 0.24106263661106772 6.0443892571829885 9.8535654889136 26.403860910570746 0 0 0
1189 4 0.8754084797450977 7.720338304838981 1.673246535815901 22.990133887512457 0 0 0
788 2 0.21637616404785823 7.491006791887754 15.39443342736727 20.92844831092436 0 0 0
1825 1 -0.13240360054145592 5.369708942831452 1.8920328465594642 20.905001016580037 0 1 0
1585 1 -0.12081190955759825 1.7730179490217757 13.992939417104033 24.068349347439895 1 0 0
1244 2 0.163177320307404 2.5247596776274626 3.6803964123810164 18.527517990350727 0 0 0
1666 4 0.8844227820036715 4.131234879872669 4.660899720079388 33.25322834010337 0 1 0
1669 1 -0.11561432550704905 9.863348372872906 2.43363680614087 29.23295293339259 0 1 0
1136 2 0.19940730749047872 2.750786319126341 10.644827505694549 28.879302383969147 0 0 0
1306 2 0.26117673711693584 4.541213003311495 9.01103913094722 29.43688881799523 0 0 0
220 2 0.1842316977536564 3.017446031551325 9.324403764226659 34.22163754374879 0 0 -1
111 1 -0.12558372267973839 1.715351360624093 10.064082648506288 32.48535252276029 0 0 -1
1663 3 -0.3975036714689946 3.6415987193544446 2.653291215291616 33.88237677606238 0 1 0
1167 1 -0.038803841191850756 3.994954959224753 2.718244976061365 30.72363482645792 0 0 0
1670 2 0.21812870125464248 10.533281460687322 2.2004694805611846 28.378759963215728 0 1 0
1289 3 -0.39926444659097604 9.885550339176628 6.113691113480056 32.912846367930456 0 0 0
1356 3 -0.4405015681549286 8.300781833075844 2.7923436286296837 34.420358517389275 0 0 0
1285 3 -0.40052433701530904 4.711296579806467 8.427263939612985 31.51518911021189 0 0 0
1183 3 -0.37256651958149645 3.204066307749254 8.9203250587279 27.608778114364828 0 0 0
1814 2 0.23343434984619263 5.623434274364357 1.78538192982062 34.26940803430679 0 1 0
122 2 0.1799846298396304 4.484040761560082 11.21839584337235 31.161829070628613 0 0 -1
143 1 -0.14403868043541232 4.845323589837715 13.056331638176687 32.46807183544074 0 0 -1
1287 3 -0.38147494787594116 4.010724101467749 13.867847559407544 27.756300298959395 0 0 0
1582 2 0.268452972750412 3.331848266616012 4.441701909536299 29.132244290936367 1 0 0
1278 2 0.25804816200716496 9.766967508389559 9.200520514019782 31.33223802645037 0 0 0
144 2 0.1933922927250929 4.434536392445598 12.827947823096991 33.474474224609736 0 0 -1
1165 1 -0.1328487163236613 5.317242807643182 3.4863579297458953 29.173035614015905 0 0 0
1179 1 -0.14036494146134113 7.730623584655419 6.475143230216031 30.8378433262478 0 0 0
266 3 -0.37035987877664084 6.605038665843292 9.858186320813767 34.36016383456332 0 0 -1
1162 2 0.23328927619650788 10.30171399280162 6.415398320198245 29.532644738686436 0 0 0
120 2 0.1896184895680325 6.238159776829979 15.058699525884318 30.219926810653106 0 0 -1
1166 2 0.22814202976332856 5.7660876618807615 3.7126888141449497 28.2048131775357 0 0 0
1813 1 -0.05238168922852473 4.519803571598452 1.703112778433627 34.16456422444374 0 1 0
1260 2 0.2457538351771794 8.420746849721498 11.1568067561249 29.163887762864455 0 0 0
219 1 -0.1261658832185867 2.0506848485173874 9.58064937639787 33.79350239942905 0 0 -1
1358 3 -0.43354391548828775 5.349083722282274 5.6476310312975535 34.78071851420211 0 0 0
1667 1 -0.054571645508874445 8.054931096800768 2.5438114582026623 30.45545163912548 0 1 0
1152 3 -0.4170550876454433 4.530580535187102 10.617192852013135 27.65321363452726 0 0 0
134 3 -0.4026125500630308 5.449660462872491 12.998478609039505 30.367862749364903 0 0 -1
1097 1 -0.12072701489419502 10.598296820539668 8.073057035852976 33.44451458141265 0 0 0
562 2 0.20841035934381894 8.34247292872884 11.08754679026555 34.313238605630964 0 1 -1
1145 1 -0.11386274205286503 5.092008278104353 9.742663096862469 26.82360163585206 0 0 0
1149 3 -0.38571417589031515 8.06388105241067 6.9725999139083035 28.69186019751957 0 0 0
1180 2 0.1539330463850294 7.667274860898365 6.023036076884724 31.870849664982703 0 0 0
1357 3 -0.4072220657115925 4.612265354535121 3.8073564417512373 31.229386430616554 0 0 0
1707 1 -0.13094280558220914 10.240738420446032 11.450071799799149 30.875164343794847 0 0 0
1170 2 0.19734913804565066 7.432400876627241 9.032109682757504 28.89501211296678 0 0 0
1279 1 -0.15576009511046665 3.864220504908022 7.765031041162048 32.35239017821873 0 0 0
1144 2 0.2383853847550308 8.58951080632465 4.96893719938802 29.27068301601711 0 0 0
1259 1 -0.06172837407084605 8.409375329592583 11.522041340593713 28.134557648585695 0 0 0
1185 3 -0.3719851842409349 4.421662489018951 2.55894546680497 29.46313181410159 0 0 0
1283 3 -0.45410086799142774 7.396338270539328 12.108815444767528 27.46447691982085 0 0 0
1186 3 -0.3385235801292835 7.410468487375868 7.715911815596821 30.607511667616738 0 0 0
121 1 -0.1512636731672349 4.866339305885201 12.249277302365432 31.31274874510533 0 0 -1
1671 1 -0.14445214003442242 10.153561860635161 3.2288800915761047 30.37670157060672 0 1 0
1342 2 0.2309873232890255 5.766252048703903 5.360108168671544 30.57212736918873 0 0 0
164 3 -0.37895362071099764 5.414610313784153 14.19635985526111 32.090389093705596 0 0 -1
1728 3 -0.4035157358397852 9.369171262757574 12.412689477011316 31.016951610937795 0 0 0
1143 1 -0.13877164771360334 8.178055709903369 5.974013482819882 29.564489505244108 0 0 0
112 2 0.2023543400717215 2.366403819731188 10.159998106248851 31.566867665966903 0 0 -1
1290 3 -0.40764173016669564 8.306043365712277 10.62060392639992 31.590874665626146 0 0 0
1269 1 -0.04729796244164111 3.221626448114566 14.517710857240981 28.646078423509344 0 0 0
1349 1 -0.11459394277173088 8.849760706186279 1.595154348379393 34.4552696731401 0 0 0
1346 2 0.12759230991414 7.165925563241761 5.808751950252391 33.57275278781814 0 0 0