Created on Fri Nov 17 14:54:18 2017 

        1632 atoms
        1968 bonds
        3552 angles
        6048 dihedrals
        2880 impropers

           6 atom types
           7 bond types
          10 angle types
           9 dihedral types
           3 improper types
           0.000000  43.874540 xlo xhi
           0.000000  43.874540 ylo yhi
           0.000000  43.874540 zlo zhi
           0.000000   0.000000   0.000000 xy xz yz

Masses

    1    12.010700000 # 2
    2    12.010700000 # 168
    3    63.546000000 # 165
    4     1.007940000 # 5
    5    14.006700000 # 40
    6    15.999400000 # 167

Bond Coeffs

    1                       class2        1.485000      360.635220     -919.619811     1367.934469 # 2 168
    2                       class2        1.394000      509.335200    -1298.804760     1931.972080 # 2 2
    3                       class2        1.278000      585.591600    -1493.258580     2221.222138 # 168 167
    4                       class2        1.094000      390.634200     -996.117210     1481.724350 # 2 5
    5                       class2        1.266000      797.814600    -2034.427230     3026.210505 # 2 40
    6                       class2        2.536000       75.465060     -192.435903      286.248406 # 165 165
    7                        morse       50.000000        1.451345        1.914000 # 165 167

Angle Coeffs

    1                       class2      117.711000       57.407656      -46.049029       10.553660 # 168 2 2
    2                       class2      127.050000       53.307109      -42.759813        9.799827 # 2 2 2
    3                       class2      123.490000      111.074462      -89.097370       20.419613 # 167 168 167
    4                       class2      115.098000       79.493057      -63.764634       14.613778 # 2 168 167
    5                       class2      120.350000       36.185527      -29.025892        6.652244 # 2 2 5
    6                       class2      119.000000       47.480016      -38.085663        8.728591 # 40 2 2
    7                       class2       84.336000       29.351283      -23.543865        5.395856 # 165 165 167
    8              cosine/periodic      100.000000               1               4 # 167 165 167
    9                       class2      124.000000       30.933950      -24.813387        5.686809 # 2 40 2
   10                       class2      126.814000       13.740429      -11.021760        2.526001 # 168 167 165

BondBond Coeffs

    1 class2        0.000000        1.394000        1.485000 # 168 2 2
    2 class2        0.000000        1.394000        1.394000 # 2 2 2
    3 class2        0.000000        1.278000        1.278000 # 167 168 167
    4 class2        0.000000        1.485000        1.278000 # 2 168 167
    5 class2        0.000000        1.394000        1.094000 # 2 2 5
    6 class2        0.000000        1.394000        1.266000 # 40 2 2
    7 class2        0.000000        2.536000        1.914000 # 165 165 167
    8 skip # 167 165 167
    9 class2        0.000000        1.266000        1.266000 # 2 40 2
   10 class2        0.000000        1.914000        1.278000 # 168 167 165

BondAngle Coeffs

    1 class2        0.000000        0.000000        1.394000        1.485000 # 168 2 2
    2 class2        0.000000        0.000000        1.394000        1.394000 # 2 2 2
    3 class2        0.000000        0.000000        1.278000        1.278000 # 167 168 167
    4 class2        0.000000        0.000000        1.485000        1.278000 # 2 168 167
    5 class2        0.000000        0.000000        1.394000        1.094000 # 2 2 5
    6 class2        0.000000        0.000000        1.394000        1.266000 # 40 2 2
    7 class2        0.000000        0.000000        2.536000        1.914000 # 165 165 167
    8 skip  # 167 165 167
    9 class2        0.000000        0.000000        1.266000        1.266000 # 2 40 2
   10 class2        0.000000        0.000000        1.914000        1.278000 # 168 167 165

Dihedral Coeffs

    1     4       0.000000     1     0       0.870500     2  -180       0.000000     3     0       0.000000     4  -180 # 2 2 168 167
    2     4       0.000000     1     0       0.000000     2  -180       0.000000     3     0       0.000000     4  -180 # 168 2 2 5
    3     4       0.000000     1     0       2.189500     2  -180       0.000000     3     0       0.000000     4  -180 # 2 2 2 2
    4     4       0.000000     1     0       3.158000     2  -180       0.000000     3     0       0.000000     4  -180 # 2 2 2 5
    5     4       0.000000     1     0       2.264000     2  -180       0.000000     3     0       0.000000     4  -180 # 167 168 167 165
    6     4       0.000000     1     0       7.189500     2  -180       0.000000     3     0       0.000000     4  -180 # 2 2 2 40
    7     4       0.000000     1     0       1.500000     2  -180       0.000000     3     0       0.000000     4  -180 # 2 2 40 2
    8     4       0.000000     1     0       2.986000     2  -180       0.000000     3     0       0.000000     4  -180 # 5 2 2 5
    9     4       0.000000     1     0       0.000000     2  -180       0.000000     3     0       0.304500     4  -180 # 167 165 165 167

Improper Coeffs

    1        6.258781      180.000000  # 2 2 168 2
    2       13.668602      180.000000  # 2 168 167 167
    3        1.366860      180.000000  # 2 2 2 5

Atoms

       1      444        1     0.00000   13.54735   22.04038    3.90641
       2      444        1     0.00000    3.90641   13.54735   22.04038
       3      444        1     0.00000   22.04038    3.90641   13.54735
       4      444        1     0.00000   35.48462   22.04038   18.03086
       5      444        1     0.00000   25.84368   13.54735   43.77143
       6      444        1     0.00000    0.10311    3.90641    8.38992
       7      444        1     0.00000    8.38992    0.10311    3.90641
       8      444        1     0.00000   18.03086   35.48462   22.04038
       9      444        1     0.00000   43.77143   25.84368   13.54735
      10      444        1     0.00000   30.32719    0.10311   18.03086
      11      444        1     0.00000   39.96813   35.48462   43.77143
      12      444        1     0.00000   21.83416   25.84368    8.38992
      13      444        1     0.00000   30.32719   21.83416   39.96813
      14      444        1     0.00000   39.96813   30.32719   21.83416
      15      444        1     0.00000   21.83416   39.96813   30.32719
      16      444        1     0.00000    8.38992   21.83416   25.84368
      17      444        1     0.00000   18.03086   30.32719    0.10311
      18      444        1     0.00000   43.77143   39.96813   35.48462
      19      444        1     0.00000   35.48462   43.77143   39.96813
      20      444        1     0.00000   25.84368    8.38992   21.83416
      21      444        1     0.00000    0.10311   18.03086   30.32719
      22      444        1     0.00000   13.54735   43.77143   25.84368
      23      444        1     0.00000    3.90641    8.38992    0.10311
      24      444        1     0.00000   22.04038   18.03086   35.48462
      25      444        1     0.00000   13.67880   22.19606   39.70312
      26      444        1     0.00000   39.70312   13.67880   22.19606
      27      444        1     0.00000   22.19606   39.70312   13.67880
      28      444        1     0.00000   35.61607   22.19606   26.10869
      29      444        1     0.00000   17.76585   13.67880   43.61575
      30      444        1     0.00000    0.25879   39.70312    8.25847
      31      444        1     0.00000    8.25847    0.25879   39.70312
      32      444        1     0.00000   26.10869   35.61607   22.19606
      33      444        1     0.00000   43.61575   17.76585   13.67880
      34      444        1     0.00000   30.19574    0.25879   26.10869
      35      444        1     0.00000    4.17142   35.61607   43.61575
      36      444        1     0.00000   21.67848   17.76585    8.25847
      37      444        1     0.00000   30.19574   21.67848    4.17142
      38      444        1     0.00000    4.17142   30.19574   21.67848
      39      444        1     0.00000   21.67848    4.17142   30.19574
      40      444        1     0.00000    8.25847   21.67848   17.76585
      41      444        1     0.00000   26.10869   30.19574    0.25879
      42      444        1     0.00000   43.61575    4.17142   35.61607
      43      444        1     0.00000   35.61607   43.61575    4.17142
      44      444        1     0.00000   17.76585    8.25847   21.67848
      45      444        1     0.00000    0.25879   26.10869   30.19574
      46      444        1     0.00000   13.67880   43.61575   17.76585
      47      444        1     0.00000   39.70312    8.25847    0.25879
      48      444        1     0.00000   22.19606   26.10869   35.61607
      49      444        2     0.00000   35.52783   43.77907   41.46295
      50      444        2     0.00000   41.46295   35.52783   43.77907
      51      444        2     0.00000   43.77907   41.46295   35.52783
      52      444        2     0.00000   13.59056   43.77907   24.34886
      53      444        2     0.00000   19.52568   35.52783   22.03274
      54      444        2     0.00000   21.84180   41.46295   30.28398
      55      444        2     0.00000   30.28398   21.84180   41.46295
      56      444        2     0.00000   24.34886   13.59056   43.77907
      57      444        2     0.00000   22.03274   19.52568   35.52783
      58      444        2     0.00000    8.34671   21.84180   24.34886
      59      444        2     0.00000    2.41159   13.59056   22.03274
      60      444        2     0.00000    0.09547   19.52568   30.28398
      61      444        2     0.00000    8.34671    0.09547    2.41159
      62      444        2     0.00000    2.41159    8.34671    0.09547
      63      444        2     0.00000    0.09547    2.41159    8.34671
      64      444        2     0.00000   30.28398    0.09547   19.52568
      65      444        2     0.00000   24.34886    8.34671   21.84180
      66      444        2     0.00000   22.03274    2.41159   13.59056
      67      444        2     0.00000   13.59056   22.03274    2.41159
      68      444        2     0.00000   19.52568   30.28398    0.09547
      69      444        2     0.00000   21.84180   24.34886    8.34671
      70      444        2     0.00000   35.52783   22.03274   19.52568
      71      444        2     0.00000   41.46295   30.28398   21.84180
      72      444        2     0.00000   43.77907   24.34886   13.59056
      73      444        2     0.00000   22.13721   41.19189   13.67033
      74      444        2     0.00000   13.67033   22.13721   41.19189
      75      444        2     0.00000   41.19189   13.67033   22.13721
      76      444        2     0.00000    0.19994   41.19189    8.26694
      77      444        2     0.00000   35.60760   22.13721   24.61992
      78      444        2     0.00000   19.25462   13.67033   43.67460
      79      444        2     0.00000   43.67460   19.25462   13.67033
      80      444        2     0.00000    8.26694    0.19994   41.19189
      81      444        2     0.00000   24.61992   35.60760   22.13721
      82      444        2     0.00000   21.73733   19.25462    8.26694
      83      444        2     0.00000   30.20421    0.19994   24.61992
      84      444        2     0.00000    2.68265   35.60760   43.67460
      85      444        2     0.00000   21.73733    2.68265   30.20421
      86      444        2     0.00000   30.20421   21.73733    2.68265
      87      444        2     0.00000    2.68265   30.20421   21.73733
      88      444        2     0.00000   43.67460    2.68265   35.60760
      89      444        2     0.00000    8.26694   21.73733   19.25462
      90      444        2     0.00000   24.61992   30.20421    0.19994
      91      444        2     0.00000    0.19994   24.61992   30.20421
      92      444        2     0.00000   35.60760   43.67460    2.68265
      93      444        2     0.00000   19.25462    8.26694   21.73733
      94      444        2     0.00000   22.13721   24.61992   35.60760
      95      444        2     0.00000   13.67033   43.67460   19.25462
      96      444        2     0.00000   41.19189    8.26694    0.19994
      97      444        2     0.00000   43.80059    8.32703    2.69707
      98      444        2     0.00000    2.69707   43.80059    8.32703
      99      444        2     0.00000    8.32703    2.69707   43.80059
     100      444        2     0.00000   21.86332    8.32703   19.24020
     101      444        2     0.00000   24.63434   43.80059   13.61024
     102      444        2     0.00000   30.26430    2.69707   22.01122
     103      444        2     0.00000   22.01122   30.26430    2.69707
     104      444        2     0.00000   19.24020   21.86332    8.32703
     105      444        2     0.00000   13.61024   24.63434   43.80059
     106      444        2     0.00000    0.07395   30.26430   19.24020
     107      444        2     0.00000   41.17747   21.86332   13.61024
     108      444        2     0.00000   35.54751   24.63434   22.01122
     109      444        2     0.00000    0.07395   35.54751   41.17747
     110      444        2     0.00000   41.17747    0.07395   35.54751
     111      444        2     0.00000   35.54751   41.17747    0.07395
     112      444        2     0.00000   22.01122   35.54751   24.63434
     113      444        2     0.00000   19.24020    0.07395   30.26430
     114      444        2     0.00000   13.61024   41.17747   21.86332
     115      444        2     0.00000   21.86332   13.61024   41.17747
     116      444        2     0.00000   24.63434   22.01122   35.54751
     117      444        2     0.00000   30.26430   19.24020    0.07395
     118      444        2     0.00000   43.80059   13.61024   24.63434
     119      444        2     0.00000    2.69707   22.01122   30.26430
     120      444        2     0.00000    8.32703   19.24020   21.86332
     121      444        2     0.00000   21.74413    8.40415   24.36258
     122      444        2     0.00000   24.36258   21.74413    8.40415
     123      444        2     0.00000    8.40415   24.36258   21.74413
     124      444        2     0.00000   43.68140    8.40415   41.44923
     125      444        2     0.00000    2.42531   21.74413   13.53312
     126      444        2     0.00000   30.34142   24.36258    0.19314
     127      444        2     0.00000    0.19314   30.34142   24.36258
     128      444        2     0.00000   41.44923   43.68140    8.40415
     129      444        2     0.00000   13.53312    2.42531   21.74413
     130      444        2     0.00000   22.13041   30.34142   41.44923
     131      444        2     0.00000   19.51196   43.68140   13.53312
     132      444        2     0.00000   35.47039    2.42531    0.19314
     133      444        2     0.00000   22.13041   35.47039   19.51196
     134      444        2     0.00000   19.51196   22.13041   35.47039
     135      444        2     0.00000   35.47039   19.51196   22.13041
     136      444        2     0.00000    0.19314   35.47039    2.42531
     137      444        2     0.00000   41.44923   22.13041   30.34142
     138      444        2     0.00000   13.53312   19.51196   43.68140
     139      444        2     0.00000   43.68140   13.53312   19.51196
     140      444        2     0.00000    2.42531    0.19314   35.47039
     141      444        2     0.00000   30.34142   41.44923   22.13041
     142      444        2     0.00000   21.74413   13.53312    2.42531
     143      444        2     0.00000   24.36258    0.19314   30.34142
     144      444        2     0.00000    8.40415   41.44923   43.68140
     145      444        1     0.00000    4.19070   43.84531    8.30975
     146      444        1     0.00000    8.30975    4.19070   43.84531
     147      444        1     0.00000   43.84531    8.30975    4.19070
     148      444        1     0.00000   26.12797   43.84531   13.62752
     149      444        1     0.00000   30.24702    4.19070   21.96650
     150      444        1     0.00000   21.90804    8.30975   17.74657
     151      444        1     0.00000   17.74657   21.90804    8.30975
     152      444        1     0.00000   13.62752   26.12797   43.84531
     153      444        1     0.00000   21.96650   30.24702    4.19070
     154      444        1     0.00000   39.68384   21.90804   13.62752
     155      444        1     0.00000   35.56479   26.12797   21.96650
     156      444        1     0.00000    0.02923   30.24702   17.74657
     157      444        1     0.00000   39.68384    0.02923   35.56479
     158      444        1     0.00000   35.56479   39.68384    0.02923
     159      444        1     0.00000    0.02923   35.56479   39.68384
     160      444        1     0.00000   17.74657    0.02923   30.24702
     161      444        1     0.00000   13.62752   39.68384   21.90804
     162      444        1     0.00000   21.96650   35.56479   26.12797
     163      444        1     0.00000   26.12797   21.96650   35.56479
     164      444        1     0.00000   30.24702   17.74657    0.02923
     165      444        1     0.00000   21.90804   13.62752   39.68384
     166      444        1     0.00000    4.19070   21.96650   30.24702
     167      444        1     0.00000    8.30975   17.74657   21.90804
     168      444        1     0.00000   43.84531   13.62752   26.12797
     169      444        1     0.00000    8.43589   25.85410   21.69952
     170      444        1     0.00000   21.69952    8.43589   25.85410
     171      444        1     0.00000   25.85410   21.69952    8.43589
     172      444        1     0.00000   30.37316   25.85410    0.23775
     173      444        1     0.00000   43.63679    8.43589   39.95771
     174      444        1     0.00000    3.91683   21.69952   13.50138
     175      444        1     0.00000   13.50138    3.91683   21.69952
     176      444        1     0.00000    0.23775   30.37316   25.85410
     177      444        1     0.00000   39.95771   43.63679    8.43589
     178      444        1     0.00000   35.43865    3.91683    0.23775
     179      444        1     0.00000   22.17502   30.37316   39.95771
     180      444        1     0.00000   18.02044   43.63679   13.50138
     181      444        1     0.00000   35.43865   18.02044   22.17502
     182      444        1     0.00000   22.17502   35.43865   18.02044
     183      444        1     0.00000   18.02044   22.17502   35.43865
     184      444        1     0.00000   13.50138   18.02044   43.63679
     185      444        1     0.00000    0.23775   35.43865    3.91683
     186      444        1     0.00000   39.95771   22.17502   30.37316
     187      444        1     0.00000   30.37316   39.95771   22.17502
     188      444        1     0.00000   43.63679   13.50138   18.02044
     189      444        1     0.00000    3.91683    0.23775   35.43865
     190      444        1     0.00000    8.43589   39.95771   43.63679
     191      444        1     0.00000   21.69952   13.50138    3.91683
     192      444        1     0.00000   25.85410    0.23775   30.37316
     193      444        1     0.00000    7.08717    4.87479   43.86304
     194      444        1     0.00000   43.86304    7.08717    4.87479
     195      444        1     0.00000    4.87479   43.86304    7.08717
     196      444        1     0.00000   29.02444    4.87479   21.94877
     197      444        1     0.00000   21.92577    7.08717   17.06248
     198      444        1     0.00000   26.81206   43.86304   14.85010
     199      444        1     0.00000   14.85010   26.81206   43.86304
     200      444        1     0.00000   21.94877   29.02444    4.87479
     201      444        1     0.00000   17.06248   21.92577    7.08717
     202      444        1     0.00000   36.78737   26.81206   21.94877
     203      444        1     0.00000    0.01150   29.02444   17.06248
     204      444        1     0.00000   38.99975   21.92577   14.85010
     205      444        1     0.00000   36.78737   38.99975    0.01150
     206      444        1     0.00000    0.01150   36.78737   38.99975
     207      444        1     0.00000   38.99975    0.01150   36.78737
     208      444        1     0.00000   14.85010   38.99975   21.92577
     209      444        1     0.00000   21.94877   36.78737   26.81206
     210      444        1     0.00000   17.06248    0.01150   29.02444
     211      444        1     0.00000   29.02444   17.06248    0.01150
     212      444        1     0.00000   21.92577   14.85010   38.99975
     213      444        1     0.00000   26.81206   21.94877   36.78737
     214      444        1     0.00000    7.08717   17.06248   21.92577
     215      444        1     0.00000   43.86304   14.85010   26.81206
     216      444        1     0.00000    4.87479   21.94877   29.02444
     217      444        1     0.00000    7.23462   26.57502   21.71017
     218      444        1     0.00000   21.71017    7.23462   26.57502
     219      444        1     0.00000   26.57502   21.71017    7.23462
     220      444        1     0.00000   29.17189   26.57502    0.22710
     221      444        1     0.00000   43.64744    7.23462   39.23679
     222      444        1     0.00000    4.63775   21.71017   14.70265
     223      444        1     0.00000   14.70265    4.63775   21.71017
     224      444        1     0.00000    0.22710   29.17189   26.57502
     225      444        1     0.00000   39.23679   43.64744    7.23462
     226      444        1     0.00000   36.63992    4.63775    0.22710
     227      444        1     0.00000   22.16437   29.17189   39.23679
     228      444        1     0.00000   17.29952   43.64744   14.70265
     229      444        1     0.00000   36.63992   17.29952   22.16437
     230      444        1     0.00000   22.16437   36.63992   17.29952
     231      444        1     0.00000   17.29952   22.16437   36.63992
     232      444        1     0.00000   14.70265   17.29952   43.64744
     233      444        1     0.00000    0.22710   36.63992    4.63775
     234      444        1     0.00000   39.23679   22.16437   29.17189
     235      444        1     0.00000   29.17189   39.23679   22.16437
     236      444        1     0.00000   43.64744   14.70265   17.29952
     237      444        1     0.00000    4.63775    0.22710   36.63992
     238      444        1     0.00000    7.23462   39.23679   43.64744
     239      444        1     0.00000   21.71017   14.70265    4.63775
     240      444        1     0.00000   26.57502    0.22710   29.17189
     241      444        1     0.00000    7.08524    6.26865    0.03776
     242      444        1     0.00000    0.03776    7.08524    6.26865
     243      444        1     0.00000    6.26865    0.03776    7.08524
     244      444        1     0.00000   29.02251    6.26865   21.89951
     245      444        1     0.00000   21.97503    7.08524   15.66862
     246      444        1     0.00000   28.20592    0.03776   14.85203
     247      444        1     0.00000   14.85203   28.20592    0.03776
     248      444        1     0.00000   21.89951   29.02251    6.26865
     249      444        1     0.00000   15.66862   21.97503    7.08524
     250      444        1     0.00000   36.78930   28.20592   21.89951
     251      444        1     0.00000   43.83678   29.02251   15.66862
     252      444        1     0.00000   37.60589   21.97503   14.85203
     253      444        1     0.00000   36.78930   37.60589   43.83678
     254      444        1     0.00000   43.83678   36.78930   37.60589
     255      444        1     0.00000   37.60589   43.83678   36.78930
     256      444        1     0.00000   14.85203   37.60589   21.97503
     257      444        1     0.00000   21.89951   36.78930   28.20592
     258      444        1     0.00000   15.66862   43.83678   29.02251
     259      444        1     0.00000   29.02251   15.66862   43.83678
     260      444        1     0.00000   21.97503   14.85203   37.60589
     261      444        1     0.00000   28.20592   21.89951   36.78930
     262      444        1     0.00000    7.08524   15.66862   21.97503
     263      444        1     0.00000    0.03776   14.85203   28.20592
     264      444        1     0.00000    6.26865   21.89951   29.02251
     265      444        1     0.00000    7.27733   27.96854   21.65909
     266      444        1     0.00000   21.65909    7.27733   27.96854
     267      444        1     0.00000   27.96854   21.65909    7.27733
     268      444        1     0.00000   29.21460   27.96854    0.27818
     269      444        1     0.00000   43.59636    7.27733   37.84327
     270      444        1     0.00000    6.03127   21.65909   14.65994
     271      444        1     0.00000   14.65994    6.03127   21.65909
     272      444        1     0.00000    0.27818   29.21460   27.96854
     273      444        1     0.00000   37.84327   43.59636    7.27733
     274      444        1     0.00000   36.59721    6.03127    0.27818
     275      444        1     0.00000   22.21545   29.21460   37.84327
     276      444        1     0.00000   15.90600   43.59636   14.65994
     277      444        1     0.00000   36.59721   15.90600   22.21545
     278      444        1     0.00000   22.21545   36.59721   15.90600
     279      444        1     0.00000   15.90600   22.21545   36.59721
     280      444        1     0.00000   14.65994   15.90600   43.59636
     281      444        1     0.00000    0.27818   36.59721    6.03127
     282      444        1     0.00000   37.84327   22.21545   29.21460
     283      444        1     0.00000   29.21460   37.84327   22.21545
     284      444        1     0.00000   43.59636   14.65994   15.90600
     285      444        1     0.00000    6.03127    0.27818   36.59721
     286      444        1     0.00000    7.27733   37.84327   43.59636
     287      444        1     0.00000   21.65909   14.65994    6.03127
     288      444        1     0.00000   27.96854    0.27818   29.21460
     289      444        1     0.00000    8.32236    6.97359    0.06803
     290      444        1     0.00000    0.06803    8.32236    6.97359
     291      444        1     0.00000    6.97359    0.06803    8.32236
     292      444        1     0.00000   30.25963    6.97359   21.86924
     293      444        1     0.00000   22.00530    8.32236   14.96368
     294      444        1     0.00000   28.91086    0.06803   13.61491
     295      444        1     0.00000   13.61491   28.91086    0.06803
     296      444        1     0.00000   21.86924   30.25963    6.97359
     297      444        1     0.00000   14.96368   22.00530    8.32236
     298      444        1     0.00000   35.55218   28.91086   21.86924
     299      444        1     0.00000   43.80651   30.25963   14.96368
     300      444        1     0.00000   36.90095   22.00530   13.61491
     301      444        1     0.00000   35.55218   36.90095   43.80651
     302      444        1     0.00000   43.80651   35.55218   36.90095
     303      444        1     0.00000   36.90095   43.80651   35.55218
     304      444        1     0.00000   13.61491   36.90095   22.00530
     305      444        1     0.00000   21.86924   35.55218   28.91086
     306      444        1     0.00000   14.96368   43.80651   30.25963
     307      444        1     0.00000   30.25963   14.96368   43.80651
     308      444        1     0.00000   22.00530   13.61491   36.90095
     309      444        1     0.00000   28.91086   21.86924   35.55218
     310      444        1     0.00000    8.32236   14.96368   22.00530
     311      444        1     0.00000    0.06803   13.61491   28.91086
     312      444        1     0.00000    6.97359   21.86924   30.25963
     313      444        1     0.00000    8.53579   28.63199   21.59427
     314      444        1     0.00000   21.59427    8.53579   28.63199
     315      444        1     0.00000   28.63199   21.59427    8.53579
     316      444        1     0.00000   30.47306   28.63199    0.34300
     317      444        1     0.00000   43.53154    8.53579   37.17982
     318      444        1     0.00000    6.69472   21.59427   13.40148
     319      444        1     0.00000   13.40148    6.69472   21.59427
     320      444        1     0.00000    0.34300   30.47306   28.63199
     321      444        1     0.00000   37.17982   43.53154    8.53579
     322      444        1     0.00000   35.33875    6.69472    0.34300
     323      444        1     0.00000   22.28027   30.47306   37.17982
     324      444        1     0.00000   15.24255   43.53154   13.40148
     325      444        1     0.00000   35.33875   15.24255   22.28027
     326      444        1     0.00000   22.28027   35.33875   15.24255
     327      444        1     0.00000   15.24255   22.28027   35.33875
     328      444        1     0.00000   13.40148   15.24255   43.53154
     329      444        1     0.00000    0.34300   35.33875    6.69472
     330      444        1     0.00000   37.17982   22.28027   30.47306
     331      444        1     0.00000   30.47306   37.17982   22.28027
     332      444        1     0.00000   43.53154   13.40148   15.24255
     333      444        1     0.00000    6.69472    0.34300   35.33875
     334      444        1     0.00000    8.53579   37.17982   43.53154
     335      444        1     0.00000   21.59427   13.40148    6.69472
     336      444        1     0.00000   28.63199    0.34300   30.47306
     337      444        1     0.00000    9.55111    6.30553    0.05809
     338      444        1     0.00000    0.05809    9.55111    6.30553
     339      444        1     0.00000    6.30553    0.05809    9.55111
     340      444        1     0.00000   31.48838    6.30553   21.87918
     341      444        1     0.00000   21.99536    9.55111   15.63174