Generated by pymatgen.io.lammps.data.LammpsData

272  atoms

  4  atom types

0.000000 15.423100  xlo xhi
0.000000 15.404200  ylo yhi
0.000000 18.437900  zlo zhi

Masses

1  12.01070
2   1.00794
3  14.00670
4  65.40900

Atoms

1    1 0.0000   3.996370   3.746230   7.462910
2    2 0.0000   4.452650   2.878030   7.887150
3    1 0.0000   2.747660   5.443410   6.854810
4    2 0.0000   1.791740   6.026180   6.778650
5    1 0.0000   3.868430   5.465510   6.017330
6    2 0.0000 -11.271290   6.289900   5.341440
7    1 0.0000  -0.569010   1.687660   6.770470
8    2 0.0000  -1.505090   1.967930   7.222680
9    1 0.0000  -1.390570   5.007070   9.639280
10   2 0.0000  -1.982930   4.047320   9.776350
11   1 0.0000   0.195740   6.412680   9.027200
12   2 0.0000   1.166530   6.737360   8.657980
13   1 0.0000  -6.428920  -1.911980  17.391030
14   2 0.0000  -6.266450  -0.961310  17.915320
15   1 0.0000  -9.227670   4.840300   2.829380
16   2 0.0000  -9.752440   5.775260   3.056620
17   1 0.0000   3.159100   9.561300   5.944970
18   2 0.0000   2.278480  10.145550   6.204120
19   1 0.0000   5.385020   9.053360   5.967480
20   2 0.0000   6.432340   9.058770   6.244950
21   1 0.0000   2.627690   1.308950  -6.508370
22   2 0.0000   3.229590   0.699430  -5.855440
23   1 0.0000  -6.437560  -3.349110  15.709140
24   2 0.0000  -6.406530  -3.760530  14.685670
25   3 0.0000   2.827610   4.384280   7.721740
26   3 0.0000   4.648100   4.391920   6.354640
27   3 0.0000   2.106970   2.437620  -5.970800
28   3 0.0000   0.643860   2.209640   7.147200
29   3 0.0000  -0.061700   5.103020   9.124070
30   3 0.0000  -6.296760  -1.997400  15.998540
31   3 0.0000  -8.785060   3.945480   3.794460
32   3 0.0000   4.309210   9.662360   6.687830
33   4 0.0000   1.205650   3.489550   8.583880
34   4 0.0000  -8.947810   4.130020   5.850880
35   1 0.0000   1.364110  -5.012030  -2.714180
36   2 0.0000   0.581500  -4.528170  -3.350840
37   1 0.0000   3.233610  -5.486970  -1.723270
38   2 0.0000   4.266780  -5.250660  -1.314340
39   1 0.0000   2.472280  -6.701120  -1.806260
40   2 0.0000   2.708720  -7.736870  -1.518130
41   1 0.0000   9.745060  -2.192940  -7.610610
42   2 0.0000  10.064390  -2.920660  -8.367920
43   1 0.0000   6.472150  -2.075750  -5.041480
44   2 0.0000   7.111640  -2.395470  -5.911530
45   1 0.0000   5.969620  -1.299500  -2.958090
46   2 0.0000   5.957130  -0.868890  -1.938780
47   1 0.0000  -2.511160  -7.621860  -0.328280
48   2 0.0000  -2.662450  -8.710630  -0.475360
49   1 0.0000  -2.175210  -5.565150  -4.610290
50   2 0.0000  -2.725640  -5.063070  -3.817620
51   1 0.0000   0.634560 -10.035370  -3.090470
52   2 0.0000   1.615250  -9.595980  -2.909690
53   1 0.0000  -1.539910 -10.113050  -3.142920
54   2 0.0000  -2.601190  -9.892900  -3.036340
55   1 0.0000   4.836990  -3.549690   1.671120
56   2 0.0000   4.729050  -3.943510   2.686000
57   1 0.0000  -1.633000  -5.652320  -0.265430
58   2 0.0000  -0.802740  -4.923680  -0.481450
59   3 0.0000   2.577140  -4.480580  -2.447220
60   3 0.0000   1.224610  -6.304670  -2.375000
61   3 0.0000   5.979620  -3.359230   0.976530
62   3 0.0000   9.037260  -1.016120  -7.943160
63   3 0.0000   6.888920  -1.258700  -3.986510
64   3 0.0000  -1.693900  -6.803460  -1.032850
65   3 0.0000  -1.227210  -6.643040  -4.366420
66   3 0.0000  -0.498720  -9.339550  -2.695030
67   4 0.0000   3.307300  -2.633600  -2.191790
68   4 0.0000  -0.546780  -7.250710  -2.578860
69   1 0.0000  -5.669410  -5.701090   1.955780
70   2 0.0000  -4.939740  -5.502990   1.166490
71   1 0.0000  -6.832650  -6.837880   3.396170
72   2 0.0000  -7.105950  -7.602790   4.193950
73   1 0.0000  -7.614660  -5.782510   2.923630
74   2 0.0000   6.817320  -5.500330   3.261270
75   1 0.0000  -1.983340  -7.504210   4.820560
76   2 0.0000  -2.808150  -7.598860   5.509950
77   1 0.0000   0.295230  -2.427250   2.869860
78   2 0.0000  -0.351390  -1.605590   2.574110
79   1 0.0000   2.144660  -3.424080   3.657690
80   2 0.0000   3.125960  -3.470390   4.168530
81   1 0.0000   5.559750  -3.005030  -0.268420
82   2 0.0000   6.208670  -2.739350  -1.145620
83   1 0.0000   4.909240  -1.526150   4.998630
84   2 0.0000   5.281900  -1.310940   3.976350
85   1 0.0000  -7.155080  -0.299420   1.597700
86   2 0.0000  -8.212700  -0.163820   1.281020
87   1 0.0000  -5.372810  -1.360010   2.334150
88   2 0.0000  -4.667090  -2.152640   2.584030
89   1 0.0000  -2.534630  -5.728660   0.770520
90   2 0.0000  -2.718450  -5.069310   1.605490
91   1 0.0000   3.721840  -3.364720   0.863310
92   2 0.0000   2.676380  -3.521060   1.098800
93   3 0.0000  -5.606920  -6.764220   2.739010
94   3 0.0000  -6.916910  -5.085670   1.992610
95   3 0.0000  -3.126600  -7.048520   0.752150
96   3 0.0000  -2.093470  -7.746840   3.472000
97   3 0.0000   1.475740  -2.220500   3.638240
98   3 0.0000   4.223760  -2.853400  -0.331940
99   3 0.0000   3.690470  -1.109520   5.534460
100  3 0.0000  -6.740350  -1.556600   1.992110
101  4 0.0000  -3.904560  -7.780130   2.550180
102  4 0.0000   8.002110  -3.376330   1.234130
103  1 0.0000  -3.932320   9.049860  -8.519390
104  2 0.0000  -3.779490   8.722420  -7.466570
105  1 0.0000  -4.852320   9.758430 -10.369710
106  2 0.0000  -5.686340   9.953860 -11.016510
107  1 0.0000  -3.550380  10.143470 -10.317690
108  2 0.0000  -2.771690  10.367050 -11.060860
109  1 0.0000  -6.058070   6.779430 -11.465610
110  2 0.0000  -5.082270   7.236300 -11.336530
111  1 0.0000  -5.026920   5.384570  -5.778200
112  2 0.0000  -4.630220   5.131470  -4.787190
113  1 0.0000  -5.400770   5.247860  -7.859750
114  2 0.0000  -5.320530   4.873990  -8.918350
115  1 0.0000   1.528250   3.192280  -6.955580
116  2 0.0000   1.084860   4.176370  -6.825090
117  1 0.0000   3.143820   1.149660   0.681240
118  2 0.0000   3.225900   1.215220  -0.447990
119  1 0.0000   2.459600   0.106080  -2.967190
120  2 0.0000   3.466690   0.211460  -3.225750
121  1 0.0000   0.304330   0.382040  -2.517870
122  2 0.0000  -0.633500   0.955190  -2.348100
123  1 0.0000  -6.593500  -4.050830  16.928030
124  2 0.0000  -6.654580  -5.120560  17.155540
125  1 0.0000   2.417200   1.400420  -7.902820
126  2 0.0000   2.685550   0.751920  -8.686150
127  3 0.0000  -5.139540   9.094080  -9.128410
128  3 0.0000  -2.925160   9.598090  -9.193520
129  3 0.0000  -6.580230  -3.147510  17.944540
130  3 0.0000  -7.021480   7.002000 -10.491020
131  3 0.0000  -4.746200   4.584960  -6.867490
132  3 0.0000   1.686880   2.554840  -8.164960
133  3 0.0000   3.417640   2.229420   1.504370
134  3 0.0000   1.416760   0.976200  -3.106400
135  4 0.0000  -6.571450   7.956260  -8.580960
136  4 0.0000   1.752070   2.861100  -3.917880
137  1 0.0000  -6.836570  -3.352970 -11.105430
138  2 0.0000  -7.165400  -3.938080 -10.259410
139  1 0.0000  -6.510650  -2.855620 -13.222090
140  2 0.0000  -6.442990  -2.992970 -14.288630
141  1 0.0000  -6.486310  -1.668820 -12.465120
142  2 0.0000   9.084940  -0.690550 -12.911600
143  1 0.0000   0.696020  -0.908120  -2.087880
144  2 0.0000   0.035010  -1.593510  -1.651540
145  1 0.0000  -2.145680  -5.316790  -5.981330
146  2 0.0000  -2.600880  -4.536410  -6.558540
147  1 0.0000  -0.781230  -7.046600  -5.583320
148  2 0.0000  -0.102090  -7.918250  -5.732450
149  1 0.0000   7.022880   1.544230 -11.245740
150  2 0.0000   6.443880   0.945960 -12.003580
151  1 0.0000   5.217800  -2.592400  -4.654790
152  2 0.0000   4.519950  -3.377100  -5.165640
153  1 0.0000  -8.070140  -9.178070 -10.885460
154  2 0.0000  -9.026720  -9.189780 -10.372200
155  1 0.0000  -6.633070  -9.295470 -12.516050
156  2 0.0000  -6.105570  -9.608830 -13.427860
157  1 0.0000   0.548050  -3.770890   9.562160
158  2 0.0000  -0.406730  -3.291870   9.754730
159  1 0.0000   8.454300   2.041160  -9.701180
160  2 0.0000   9.289170   1.874790  -8.911760
161  3 0.0000  -6.829010  -3.903900 -12.319410
162  3 0.0000  -6.688770  -1.978400 -11.144690
163  3 0.0000   0.515480  -5.137220   9.306010
164  3 0.0000   2.036960  -1.044650  -2.329180
165  3 0.0000  -1.307750  -6.344520  -6.607630
166  3 0.0000   7.832920   0.988940 -10.349390
167  3 0.0000   4.886960  -2.035470  -3.360110
168  3 0.0000  -7.921570  -9.690570 -12.115930
169  4 0.0000  -1.161970  -6.268790  -8.675480
170  4 0.0000   8.444240  -0.767440  -9.821130
171  1 0.0000  -5.197970   5.063040   1.687770
172  2 0.0000  -6.131320   5.566700   1.445400
173  1 0.0000  -3.542110   3.666210   1.614000
174  2 0.0000  -2.964350   2.790950   1.206040
175  1 0.0000  -3.140490   4.805300   2.330440
176  2 0.0000  -2.086920   5.054280   2.711820
177  1 0.0000  -5.036930  -0.044730   2.047360
178  2 0.0000  -4.113950   0.492630   2.039140
179  1 0.0000  -8.830730   4.322590   1.592550
180  2 0.0000  -8.944250   4.857290   0.651900
181  1 0.0000  -8.097840   2.961460   3.127160
182  2 0.0000  -7.674030   2.025020   3.590150
183  1 0.0000   2.495270   6.466930   1.906700
184  2 0.0000   1.720870   5.883320   2.493750
185  1 0.0000  -1.873380   6.296220   9.678470
186  2 0.0000  -2.874970   6.734680  10.111510
187  1 0.0000  -0.825920   7.741880   2.975520
188  2 0.0000  -0.771740   7.857050   1.887890
189  1 0.0000  -0.616500   8.200390   5.108540
190  2 0.0000  -0.110050   8.459200   6.078450
191  1 0.0000  -5.540090   2.355230  -3.353310
192  2 0.0000  -4.984960   2.646470  -4.288230
193  1 0.0000   4.245870   6.938050   0.733890
194  2 0.0000   5.159690   6.698820   0.104640
195  3 0.0000  -4.857700   3.833540   1.232310
196  3 0.0000  -4.233290   5.651820   2.313540
197  3 0.0000  -6.322250   1.185360  -3.199260
198  3 0.0000  -6.224060   0.663750   1.659410
199  3 0.0000  -8.037600   3.194440   1.771010
200  3 0.0000   3.490820   5.892140   1.208030
201  3 0.0000  -0.878840   7.231900   9.358820
202  3 0.0000   0.085810   8.178670   3.876080
203  4 0.0000  -6.297210   2.487970   0.837910
204  4 0.0000   1.794540   9.070190   3.374480
205  1 0.0000   3.345030   3.988790  -1.923720
206  2 0.0000   2.374570   4.287140  -1.490760
207  1 0.0000   5.452070   3.378750  -2.049070
208  2 0.0000   6.505640   3.124370  -1.790460
209  1 0.0000   4.845350   3.228740  -3.321480
210  2 0.0000 -10.040480   2.698330  -4.149390
211  1 0.0000  -0.969000   4.079440  -3.560580
212  2 0.0000  -1.363210   3.177860  -4.137730
213  1 0.0000   2.750710   0.098540   1.487250
214  2 0.0000   2.538930  -0.963340   1.146240
215  1 0.0000   3.306280   1.763910   2.795040
216  2 0.0000   3.400460   2.292410   3.766520
217  1 0.0000  -6.793520   1.315020  -1.914320
218  2 0.0000  -7.539170   0.655360  -1.415010
219  1 0.0000  -5.904530   6.383520  -6.104350
220  2 0.0000  -6.371650   7.129510  -5.429890
221  1 0.0000   8.869610  -0.332710  -6.777720
222  2 0.0000   8.243270   0.547740  -6.543040
223  1 0.0000  10.013650  -2.172360  -6.228700
224  2 0.0000  10.573960  -2.885260  -5.636710
225  1 0.0000   3.728860   8.114030   1.211440
226  2 0.0000   3.990950   9.122390   0.948850
227  1 0.0000  -5.542390   3.085210  -2.177080
228  2 0.0000  -5.094340   4.066450  -1.893740
229  3 0.0000   4.413930   3.864450  -1.171550
230  3 0.0000   3.508570   3.653810  -3.219330
231  3 0.0000   2.586640   7.837150   1.940790
232  3 0.0000   0.363260   4.181830  -3.534760
233  3 0.0000   2.906670   0.508220   2.807680
234  3 0.0000  -6.289810   2.376180  -1.262630
235  3 0.0000  -6.032930   6.381430  -7.483160
236  3 0.0000   9.411690  -1.004540  -5.686130
237  4 0.0000   4.147580   3.971600   0.834940
238  4 0.0000  -6.605730  -0.604250  -3.889580
239  1 0.0000   6.429170  -6.017180   9.178510
240  2 0.0000   6.093250  -6.632940   8.354680
241  1 0.0000   6.421320  -4.259880  10.461050
242  2 0.0000   6.063150  -3.282960  10.837720
243  1 0.0000   7.272490  -5.180240  11.036390
244  2 0.0000   7.869880  -5.056540  11.922390
245  1 0.0000   4.820170  -6.707370   4.725280
246  2 0.0000   5.234040  -7.259860   3.851480
247  1 0.0000   5.475550  -2.499750   5.897900
248  2 0.0000   6.498460  -2.886000   5.923730
249  1 0.0000   3.558160  -1.774690   6.694920
250  2 0.0000   2.667240  -1.606240   7.325220
251  1 0.0000   1.778250  -5.442140   8.893630
252  2 0.0000   2.103160  -6.429760   8.485620
253  1 0.0000   0.302340  -3.769950   2.498720
254  2 0.0000  -0.383380  -4.381520   1.942790
255  1 0.0000   1.601440   1.494260   6.457700
256  2 0.0000   2.654030   1.878670   6.624680
257  1 0.0000  -0.318180   0.678770   5.833490
258  2 0.0000  -0.997450  -0.030770   5.399730
259  1 0.0000   7.988970   3.223050 -10.196630
260  2 0.0000   8.233130   4.248140  -9.825220
261  1 0.0000   1.845150  -3.290060   9.269180
262  2 0.0000   2.116570  -2.223590   9.331560
263  3 0.0000   5.890330  -4.747970   9.309040
264  3 0.0000   7.209600  -6.365360  10.246010
265  3 0.0000   7.020140   2.893990 -11.212950
266  3 0.0000   3.403820  -6.514530   4.735390
267  3 0.0000   4.638260  -2.527090   7.050220
268  3 0.0000   2.606920  -4.370590   8.834480
269  3 0.0000   1.403150  -4.415470   3.123200
270  3 0.0000   1.063850   0.536690   5.587980
271  4 0.0000   4.437120  -4.274870   8.023550
272  4 0.0000   2.226310  -0.531210   4.387260

