Generated by pymatgen.io.lammps.data.LammpsData

272  atoms

  4  atom types

0.000000 15.423100  xlo xhi
0.000000 15.404200  ylo yhi
0.000000 18.437900  zlo zhi

Masses

1  12.01070
2   1.00794
3  14.00670
4  65.40900

Atoms

1    1 0.0000   5.608800   6.086860   6.939550
2    2 0.0000   5.680720   7.035180   7.504710
3    1 0.0000   6.318370   4.192820   6.068580
4    2 0.0000   6.934390   3.436850   5.579810
5    1 0.0000   4.961640   4.105350   6.209650
6    2 0.0000 -11.149840   3.309880   5.886190
7    1 0.0000   0.144940   4.070390   7.838610
8    2 0.0000  -0.179510   3.888890   8.848390
9    1 0.0000   3.096510   9.531600   9.609930
10   2 0.0000   3.293240  10.341870  10.289270
11   1 0.0000   2.613770   8.449610   7.812690
12   2 0.0000   2.312870   8.069840   6.829250
13   1 0.0000  -3.426280   0.728820   8.863440
14   2 0.0000  -3.282380   0.157150   9.792810
15   1 0.0000  -7.428180   5.741460   3.108440
16   2 0.0000  -8.158020   6.626910   3.105670
17   1 0.0000   8.326330   8.457690   8.014290
18   2 0.0000   8.269220   7.570930   8.694850
19   1 0.0000   8.345750   9.504470   6.066960
20   2 0.0000   8.458510   9.659250   5.047530
21   1 0.0000   4.086410   2.035270  -7.963690
22   2 0.0000   4.613080   1.082050  -7.752020
23   1 0.0000  -3.302510   1.363620   6.797580
24   2 0.0000  -3.147080   1.353590   5.677050
25   3 0.0000   6.735880   5.488700   6.465740
26   3 0.0000   4.532310   5.316320   6.877850
27   3 0.0000   2.979600   2.425700  -7.258150
28   3 0.0000   1.425280   4.567010   7.469540
29   3 0.0000   2.833870   9.711770   8.227320
30   3 0.0000  -2.994430   0.323560   7.615150
31   3 0.0000  -6.779750   5.361810   4.274130
32   3 0.0000   8.319500   8.262510   6.686270
33   4 0.0000   3.032360   5.559940   8.237520
34   4 0.0000  -7.000400   6.347860   6.082980
35   1 0.0000   2.644600  -4.645570  -3.284300
36   2 0.0000   3.041990  -5.538180  -3.765380
37   1 0.0000   2.702140  -2.658320  -2.391760
38   2 0.0000   3.087980  -1.642100  -2.179060
39   1 0.0000   1.450200  -3.183980  -2.129440
40   2 0.0000   0.492750  -2.736710  -1.855500
41   1 0.0000   4.795710  -0.494620  -4.750320
42   2 0.0000   3.841370  -0.726400  -5.100850
43   1 0.0000   7.362190  -5.950210  -6.113320
44   2 0.0000   7.742860  -6.830600  -6.457900
45   1 0.0000   7.065230  -3.800010  -5.937150
46   2 0.0000   7.230810  -2.752230  -6.131520
47   1 0.0000  -1.259180  -5.582900   0.291500
48   2 0.0000  -0.383610  -5.828110   0.879050
49   1 0.0000  -0.935400  -6.273630  -5.430330
50   2 0.0000  -0.274950  -7.202000  -5.345820
51   1 0.0000   1.563380  -8.189740  -2.439400
52   2 0.0000   2.475120  -7.538750  -2.490650
53   1 0.0000  -0.556610  -8.673270  -2.299710
54   2 0.0000  -1.594740  -8.442770  -2.124540
55   1 0.0000   7.731770  -3.178530  -1.564140
56   2 0.0000   8.431490  -3.096020  -2.460730
57   1 0.0000  -2.539430  -4.713960  -1.252600
58   2 0.0000  -2.962040  -4.349840  -2.187850
59   3 0.0000   3.508440  -3.613310  -3.024140
60   3 0.0000   1.449690  -4.475880  -2.674170
61   3 0.0000   6.434280  -3.538960  -1.708060
62   3 0.0000   5.513450  -1.356620  -3.920770
63   3 0.0000   7.605020  -4.735840  -6.751530
64   3 0.0000  -1.246010  -5.094860  -1.004570
65   3 0.0000  -1.062590  -5.509290  -4.233550
66   3 0.0000   0.362490  -7.641860  -2.454540
67   4 0.0000   5.369420  -3.355960  -3.480110
68   4 0.0000  -0.100220  -5.681690  -2.621040
69   1 0.0000  -5.803060  -4.397030   3.092820
70   2 0.0000  -5.466320  -3.418600   3.503670
71   1 0.0000  -5.912260  -6.469710   2.348950
72   2 0.0000  -5.553980  -7.463570   2.041970
73   1 0.0000  -7.219490  -5.948690   2.376700
74   2 0.0000   7.240320  -6.404390   1.998460
75   1 0.0000  -3.432220  -8.067900   4.165060
76   2 0.0000  -4.414660  -7.750900   4.421760
77   1 0.0000  -1.268610  -2.351510   4.580910
78   2 0.0000  -0.454320  -1.595560   4.718800
79   1 0.0000  -3.080860  -3.513750   4.912750
80   2 0.0000  -3.995440  -3.988330   5.412350
81   1 0.0000   5.989370  -3.522020  -0.402100
82   2 0.0000   4.901580  -3.666310  -0.108550
83   1 0.0000   3.546180  -3.720010   3.119870
84   2 0.0000   3.079590  -3.775030   2.092270
85   1 0.0000  -7.346320  -0.497600   2.421570
86   2 0.0000  -7.326960  -0.524780   1.321930
87   1 0.0000  -7.511000  -1.157450   4.545610
88   2 0.0000  -7.870450  -1.785490   5.413070
89   1 0.0000  -3.303890  -4.952820  -0.105630
90   2 0.0000  -4.379170  -4.792370   0.058280
91   1 0.0000   8.074370  -2.984570  -0.212790
92   2 0.0000   9.069220  -2.705940   0.185080
93   3 0.0000  -5.023900  -5.467980   2.836020
94   3 0.0000  -7.116170  -4.678390   2.849940
95   3 0.0000  -2.439780  -5.456250   0.858420
96   3 0.0000  -2.619720  -7.421490   3.206730
97   3 0.0000  -2.335720  -2.448900   5.399040
98   3 0.0000   6.917720  -3.229750   0.570840
99   3 0.0000   4.877230  -3.622470   3.452040
100  3 0.0000  -7.827680  -1.514690   3.247530
101  4 0.0000  -3.044960  -5.609190   2.773030
102  4 0.0000   6.734840  -3.315740   2.603640
103  1 0.0000  -1.421890   2.769380  -7.329240
104  2 0.0000  -1.550940   1.980020  -8.084380
105  1 0.0000  -1.914160   4.465500  -6.043110
106  2 0.0000  -2.492320   5.256560  -5.593750
107  1 0.0000  -0.718850   3.921020  -5.584920
108  2 0.0000  -0.101010   4.421970  -4.822320
109  1 0.0000  -3.739080   5.998090  -9.741340
110  2 0.0000  -2.862070   6.271450  -9.218960
111  1 0.0000  -6.900150   3.920480  -7.030860
112  2 0.0000  -7.109810   4.621230  -7.896240
113  1 0.0000  -5.531910   2.811420  -5.707280
114  2 0.0000  -4.774650   2.161110  -5.274510
115  1 0.0000   2.622570   3.624280  -7.852400
116  2 0.0000   1.795220   4.264480  -7.446820
117  1 0.0000   1.434970   0.681070  -3.150020
118  2 0.0000   1.268550  -0.381580  -3.407960
119  1 0.0000  -0.534080  -0.494250  -6.521360
120  2 0.0000  -1.260650   0.131460  -5.973050
121  1 0.0000   1.187430  -1.368300  -7.572540
122  2 0.0000   2.157290  -1.348680  -8.057680
123  1 0.0000  -3.833210   2.399150   7.515870
124  2 0.0000  -4.136810   3.335820   7.198060
125  1 0.0000   4.485640   2.988280  -8.904750
126  2 0.0000   5.288360   2.907800  -9.702520
127  3 0.0000  -2.359970   3.730530  -7.118350
128  3 0.0000  -0.343220   2.884910  -6.474260
129  3 0.0000  -3.904470   2.010630   8.829060
130  3 0.0000  -4.545360   4.944150  -9.396920
131  3 0.0000  -5.573190   3.394220  -6.927380
132  3 0.0000   3.514310   4.038730  -8.836220
133  3 0.0000   1.690960   1.573560  -4.250840
134  3 0.0000   0.727090  -0.199330  -6.908550
135  4 0.0000  -4.024450   3.541400  -8.205400
136  4 0.0000   1.352240   1.600870  -6.161240
137  1 0.0000  -4.954490  -2.073430  -4.527680
138  2 0.0000  -4.760580  -2.963690  -3.822600
139  1 0.0000  -4.921200  -0.766280  -6.365790
140  2 0.0000  -4.568600  -0.339040  -7.292790
141  1 0.0000  -6.046490  -0.486390  -5.595790
142  2 0.0000   8.645470   0.319190  -5.653490
143  1 0.0000   0.163720  -2.323560  -7.561540
144  2 0.0000   0.188360  -3.381260  -8.002070
145  1 0.0000  -1.574130  -5.540410  -6.418830
146  2 0.0000  -1.788770  -5.826080  -7.417170
147  1 0.0000  -1.754950  -4.396420  -4.575250
148  2 0.0000  -2.012580  -3.501590  -3.875380
149  1 0.0000   5.636070  -3.829930  -9.843650
150  2 0.0000   5.688210  -4.828160 -10.260800
151  1 0.0000   6.594400  -5.753090  -5.005640
152  2 0.0000   6.193630  -6.483300  -4.312150
153  1 0.0000  -5.543230 -10.420690 -10.296640
154  2 0.0000  -6.456910 -11.110570 -10.376950
155  1 0.0000  -4.283990  -8.785480 -10.872080
156  2 0.0000  -4.103150  -7.824100 -11.275930
157  1 0.0000  -4.181890  -4.198230  10.021110
158  2 0.0000  -4.360140  -5.038790  10.653430
159  1 0.0000   6.337680  -1.920760  -9.176520
160  2 0.0000   7.133490  -1.207310  -8.831250
161  3 0.0000  -4.212540  -1.772970  -5.669390
162  3 0.0000  -6.049330  -1.241380  -4.448390
163  3 0.0000  -5.267340  -3.348290   9.627640
164  3 0.0000  -0.903020  -1.780380  -6.842500
165  3 0.0000  -2.109790  -4.392160  -5.877080
166  3 0.0000   6.776890  -3.196190  -9.450460
167  3 0.0000   6.422320  -4.366750  -4.871560
168  3 0.0000  -5.462930  -9.438970 -11.203230
169  4 0.0000  -2.648760  -2.684560  -6.592710
170  4 0.0000   8.348070  -4.322920  -8.570240
171  1 0.0000  -3.061960   3.200230   2.897900
172  2 0.0000  -3.514140   4.195970   2.748060
173  1 0.0000  -2.987270   1.050110   3.269760
174  2 0.0000  -3.363890  -0.033990   3.282110
175  1 0.0000  -1.797150   1.623310   3.684480
176  2 0.0000  -0.955320   1.104170   4.129130
177  1 0.0000  -6.789280   0.091970   4.506270
178  2 0.0000  -6.393730   0.690700   5.306030
179  1 0.0000  -7.159970   4.697140   2.207590
180  2 0.0000  -7.665120   4.502150   1.248630
181  1 0.0000  -6.133090   4.223890   4.024270
182  2 0.0000  -5.415730   3.736310   4.712740
183  1 0.0000   1.162810   4.669390   1.166670
184  2 0.0000   0.324990   5.227960   0.689080
185  1 0.0000   3.146240   8.177940   9.939290
186  2 0.0000   3.361020   7.583310  10.860670
187  1 0.0000  -1.549240   7.186060   3.032350
188  2 0.0000  -0.807810   7.542250   2.350940
189  1 0.0000  -2.767650   6.181780   4.503370
190  2 0.0000  -3.056090   5.498600   5.303010
191  1 0.0000  -5.008580   1.010130  -1.787410
192  2 0.0000  -4.562480   0.550030  -2.659550
193  1 0.0000   3.080760   3.728230   1.549340
194  2 0.0000   4.014540   3.256490   1.276590
195  3 0.0000  -3.804010   2.048600   2.839770
196  3 0.0000  -1.765020   2.971670   3.341140
197  3 0.0000  -6.328660   1.586170  -1.874610
198  3 0.0000  -6.772260   0.493630   3.176920
199  3 0.0000  -6.342940   3.785680   2.770360
200  3 0.0000   2.317980   4.366730   0.512400
201  3 0.0000   2.986870   7.454050   8.744430
202  3 0.0000  -1.564090   6.073760   3.859370
203  4 0.0000  -5.701400   1.962880   2.210040
204  4 0.0000  -0.441060   4.410530   3.685610
205  1 0.0000   5.373860   3.290370  -2.182570
206  2 0.0000   5.075710   2.283720  -1.855010
207  1 0.0000   5.467410   5.470730  -2.298130
208  2 0.0000   5.140680   6.489660  -2.326460
209  1 0.0000   6.646610   4.957250  -2.773080
210  2 0.0000  -7.864430   5.493300  -3.141430
211  1 0.0000   0.146460   5.532320  -2.295820
212  2 0.0000  -0.189660   4.536850  -2.129680
213  1 0.0000   1.719450   1.433470  -1.986980
214  2 0.0000   1.705200   1.171620  -0.933210
215  1 0.0000   2.061380   2.738000  -3.696370
216  2 0.0000   2.318270   3.596740  -4.269390
217  1 0.0000  -6.599530   2.044710  -0.651640
218  2 0.0000  -7.549330   2.520170  -0.460180
219  1 0.0000  -7.537710   3.799490  -5.785550
220  2 0.0000  -8.530370   4.199040  -5.460620
221  1 0.0000   6.569150  -0.584930  -3.476810
222  2 0.0000   7.264350  -0.964720  -2.754360
223  1 0.0000   5.440140   0.682530  -4.800540
224  2 0.0000   5.076320   1.697860  -5.124350
225  1 0.0000   2.405850   3.657290   2.725110
226  2 0.0000   2.537380   3.161910   3.647990
227  1 0.0000  -4.620830   1.116180  -0.457630
228  2 0.0000  -3.787990   0.774620   0.142310
229  3 0.0000   4.637820   4.435710  -1.887560
230  3 0.0000   6.634830   3.559090  -2.680650
231  3 0.0000   1.157810   4.303560   2.471840
232  3 0.0000   1.515530   5.878250  -2.400530
233  3 0.0000   2.030820   2.737270  -2.336180
234  3 0.0000  -5.672740   1.736590   0.270050
235  3 0.0000  -6.740070   3.002110  -4.998020
236  3 0.0000   6.585520   0.673180  -3.957920
237  4 0.0000   2.731300   4.510670  -1.422470
238  4 0.0000  -7.536280   2.148270  -3.451990
239  1 0.0000   0.425440  -2.770970   7.570420
240  2 0.0000  -0.036420  -3.775070   7.686710
241  1 0.0000   1.797340  -1.163320   7.119470
242  2 0.0000   2.709090  -0.699750   6.656020
243  1 0.0000   0.532180  -0.575840   7.328750
244  2 0.0000   0.250530   0.475590   7.000380
245  1 0.0000   8.449310  -4.946120   7.102940
246  2 0.0000   8.338890  -3.888060   7.013350
247  1 0.0000   2.804700  -3.824400   4.326030
248  2 0.0000   1.686570  -3.802480   4.538630
249  1 0.0000   4.919940  -3.678900   4.785440
250  2 0.0000   5.819140  -3.689320   5.406490
251  1 0.0000  -4.771420  -2.448090   8.766210
252  2 0.0000  -5.345660  -1.588070   8.354400
253  1 0.0000  -1.286150  -3.357540   3.614040
254  2 0.0000  -0.680300  -3.352540   2.743950
255  1 0.0000   1.462580   4.662930   6.144630
256  2 0.0000   2.240410   5.214430   5.601990
257  1 0.0000  -0.489290   3.855030   6.645430
258  2 0.0000  -1.427430   3.425090   6.386930
259  1 0.0000   5.002110  -1.802050  -9.593350
260  2 0.0000   4.373500  -0.883550  -9.490360
261  1 0.0000  -3.077960  -3.798090   9.343260
262  2 0.0000  -2.028030  -4.165720   9.125800
263  3 0.0000   1.695870  -2.526680   7.262750
264  3 0.0000  -0.327010  -1.636080   7.634710
265  3 0.0000   4.561000  -3.072360  -9.995610
266  3 0.0000   8.363870  -5.612210   8.374300
267  3 0.0000   3.701790  -3.824520   5.327360
268  3 0.0000  -3.451240  -2.617630   8.618780
269  3 0.0000  -2.480220  -4.103990   3.810150
270  3 0.0000   0.272560   4.245620   5.539180
271  4 0.0000   3.234180  -3.839740   7.354990
272  4 0.0000  -2.278070  -1.542090   7.408130

