Generated by pymatgen.io.lammps.data.LammpsData

272  atoms

  4  atom types

0.000000 15.423100  xlo xhi
0.000000 15.404200  ylo yhi
0.000000 18.437900  zlo zhi

Masses

1  12.01070
2   1.00794
3  14.00670
4  65.40900

Atoms

1    1 0.0000   4.246970  -5.767120   9.037270
2    2 0.0000   4.716640  -5.741250   8.056750
3    1 0.0000   3.861820  -5.574670  11.192790
4    2 0.0000   4.129170  -5.198600  12.159090
5    1 0.0000   2.649270  -5.865370  10.562170
6    2 0.0000 -13.762990  -5.951480  10.934880
7    1 0.0000   1.461140  -1.907940   1.996990
8    2 0.0000   0.631890  -2.370280   2.560090
9    1 0.0000  -5.010970  -1.874320   7.388190
10   2 0.0000  -5.396550  -1.167020   6.680400
11   1 0.0000  -4.271310  -3.793560   8.245050
12   2 0.0000  -4.014280  -4.791770   8.442890
13   1 0.0000  -4.674700   0.487230  14.045890
14   2 0.0000  -5.525640   1.053760  13.588620
15   1 0.0000 -10.125390   3.529050   1.157320
16   2 0.0000 -10.918970   2.827040   1.198550
17   1 0.0000  -0.321150  10.605310   8.573740
18   2 0.0000   0.251170  11.545320   8.405490
19   1 0.0000  -1.969540   9.275700   9.086520
20   2 0.0000  -2.886570   8.948880   9.507990
21   1 0.0000   4.095430   4.505330  -7.077640
22   2 0.0000   3.135240   4.291700  -7.630000
23   1 0.0000  -3.586220  -0.996960  15.141680
24   2 0.0000  -3.462850  -1.937240  15.771180
25   3 0.0000   4.873130  -5.436880  10.226880
26   3 0.0000   2.950630  -6.127300   9.218010
27   3 0.0000   4.132860   4.489030  -5.659340
28   3 0.0000   2.803080  -1.858060   2.365370
29   3 0.0000  -4.888930  -3.258050   7.147310
30   3 0.0000  -4.885430  -0.608320  14.792760
31   3 0.0000  -8.873970   3.425470   1.639220
32   3 0.0000  -1.538490  10.595460   9.269400
33   4 0.0000   8.196980   5.367670  12.015630
34   4 0.0000 -13.723840   3.115520   5.848750
35   1 0.0000   2.141070  -2.512470  -2.614570
36   2 0.0000   2.192280  -2.950660  -1.600220
37   1 0.0000   2.718530  -1.243940  -4.279780
38   2 0.0000   3.105150  -0.322710  -4.802070
39   1 0.0000   2.301650  -2.430360  -4.798170
40   2 0.0000   2.111580  -2.720620  -5.818460
41   1 0.0000   2.916330  -6.216310 -13.973580
42   2 0.0000   2.833660  -7.313940 -14.316060
43   1 0.0000   7.482220   0.478690  -1.779140
44   2 0.0000   8.470320   1.054650  -1.723970
45   1 0.0000   6.236020  -1.330030  -1.908260
46   2 0.0000   5.863670  -2.397130  -2.107380
47   1 0.0000  -1.640610  -4.507660  -1.547670
48   2 0.0000  -2.247930  -3.960850  -2.311770
49   1 0.0000  -2.246320  -5.789500  -4.606760
50   2 0.0000  -2.325210  -6.650510  -3.898820
51   1 0.0000   1.393880  -7.844380  -3.980020
52   2 0.0000   0.337320  -8.170300  -4.207400
53   1 0.0000   3.016390  -6.577830  -3.154460
54   2 0.0000   3.573590  -5.683010  -2.817920
55   1 0.0000   9.167200  -4.663770  -3.507460
56   2 0.0000   8.846580  -4.891210  -4.495660
57   1 0.0000  -0.027630  -5.522540  -0.472770
58   2 0.0000   1.034770  -5.826940  -0.304750
59   3 0.0000   2.685890  -1.264720  -2.881400
60   3 0.0000   1.833130  -3.209240  -3.715150
61   3 0.0000   9.260200  -3.376730  -3.060150
62   3 0.0000   2.618990  -5.851780 -12.640120
63   3 0.0000   7.495730  -0.846650  -2.184470
64   3 0.0000  -0.343380  -4.855600  -1.672060
65   3 0.0000  -1.188980  -4.901810  -4.557750
66   3 0.0000   1.678390  -6.492080  -3.639470
67   4 0.0000   3.456670  -0.121820  -1.350440
68   4 0.0000   0.569960  -4.842190  -3.480750
69   1 0.0000  -3.899900  -7.574060   1.940440
70   2 0.0000  -3.742390  -6.857960   2.763600
71   1 0.0000  -4.148320  -9.383650   0.779460
72   2 0.0000  -4.190590 -10.449210   0.627410
73   1 0.0000  -4.500840  -8.361630  -0.025200
74   2 0.0000  10.508030  -8.305500  -1.043090
75   1 0.0000  -0.816190 -10.866280   2.696570
76   2 0.0000  -1.146930 -10.312160   1.798490
77   1 0.0000  -3.992780  -2.888380   2.180440
78   2 0.0000  -3.342080  -2.427690   1.457340
79   1 0.0000  -5.555340  -4.327950   2.773300
80   2 0.0000  -6.253870  -5.107990   2.717470
81   1 0.0000   9.823330  -3.504760  -1.835770
82   2 0.0000   9.901360  -2.679240  -1.060810
83   1 0.0000   7.304660  -3.366720   6.290090
84   2 0.0000   7.276690  -2.785880   5.423190
85   1 0.0000 -11.057530   2.778780   4.496480
86   2 0.0000 -11.405030   2.414800   3.570110
87   1 0.0000 -10.858550   4.115500   6.149840
88   2 0.0000 -11.096230   4.757070   7.003950
89   1 0.0000  -1.164710  -5.512820   0.362990
90   2 0.0000  -1.340230  -6.146900   1.269230
91   1 0.0000   9.758510  -5.530400  -2.580050
92   2 0.0000   9.906530  -6.630030  -2.688430
93   3 0.0000  -3.739820  -8.894170   2.060200
94   3 0.0000  -4.360040  -7.194480   0.734150
95   3 0.0000  -2.192220  -4.851110  -0.323410
96   3 0.0000  -1.612060 -10.698930   3.865360
97   3 0.0000  -4.695610  -4.014420   1.702320
98   3 0.0000  10.180610  -4.746840  -1.522410
99   3 0.0000   8.066290  -4.528720   6.351930
100  3 0.0000 -11.802140   3.456090   5.355890
101  4 0.0000  -3.280360  -9.755910   3.859390
102  4 0.0000  11.100600  -5.219100   0.180900
103  1 0.0000  -4.582400   8.170220 -13.172620
104  2 0.0000  -5.565170   7.822570 -13.315680
105  1 0.0000  -2.370760   8.216460 -13.015830
106  2 0.0000  -1.293330   8.004950 -12.955300
107  1 0.0000  -2.829940   9.461380 -12.659910
108  2 0.0000  -2.229450  10.240950 -12.171800
109  1 0.0000 -14.488910   4.662050 -10.057560
110  2 0.0000 -14.754800   3.795120  -9.451100
111  1 0.0000  -5.578720   3.703040  -8.514850
112  2 0.0000  -6.308900   3.901810  -9.294360
113  1 0.0000  -4.821950   3.759890  -6.434770
114  2 0.0000  -4.765180   4.066990  -5.402730
115  1 0.0000   5.406450   4.806800  -5.359040
116  2 0.0000   5.890450   4.933950  -4.354970
117  1 0.0000   4.598710  10.100630  -0.297000
118  2 0.0000   3.746190  10.668110   0.110380
119  1 0.0000   3.482700   2.612290  -2.627520
120  2 0.0000   4.379020   2.524230  -3.359470
121  1 0.0000   1.738920   3.735770  -1.741740
122  2 0.0000   1.087600   4.630340  -1.680110
123  1 0.0000  -2.650630  -0.116970  14.614850
124  2 0.0000  -1.581650  -0.090760  14.781300
125  1 0.0000   5.365770   4.736330  -7.540900
126  2 0.0000   5.766660   4.968900  -8.563640
127  3 0.0000  -3.419230   7.361070 -13.369810
128  3 0.0000  -4.242410   9.388300 -12.700690
129  3 0.0000  -3.363590   0.831170  13.905440
130  3 0.0000 -14.267490   4.511480 -11.423210
131  3 0.0000  -5.797920   4.204330  -7.270450
132  3 0.0000   6.180220   4.870030  -6.480320
133  3 0.0000   5.387570  10.594150  -1.317920
134  3 0.0000   2.704600   3.778380  -2.729240
135  4 0.0000  -2.537240   1.773590  -6.077710
136  4 0.0000   2.432390   4.826680  -4.351960
137  1 0.0000   0.266820   3.083630  -5.326270
138  2 0.0000   0.716740   2.289550  -4.736250
139  1 0.0000  -1.187520   4.340050  -6.360230
140  2 0.0000  -1.977800   4.621800  -7.055530
141  1 0.0000   0.004790   5.091670  -6.041850
142  2 0.0000  15.717860   6.114810  -6.313490
143  1 0.0000   2.086610   2.623770  -1.012090
144  2 0.0000   1.608980   2.222760  -0.088900
145  1 0.0000  -3.030750  -5.473490  -5.720470
146  2 0.0000  -4.080480  -5.916280  -6.009640
147  1 0.0000  -1.447050  -4.005820  -5.564660
148  2 0.0000  -0.809480  -3.116560  -5.789310
149  1 0.0000   1.958490   0.258230 -13.207880
150  2 0.0000   1.422670   0.387270 -14.148150
151  1 0.0000   6.227100   0.773540  -1.235620
152  2 0.0000   5.793800   1.756110  -0.972010
153  1 0.0000 -14.042180  -9.614140 -11.906590
154  2 0.0000 -13.785940  -9.394020 -12.931130
155  1 0.0000 -14.353060  -9.380760  -9.738300
156  2 0.0000 -14.372130  -8.740760  -8.889550
157  1 0.0000  -0.380840  -0.944570  10.071390
158  2 0.0000   0.496300  -1.447410   9.614030
159  1 0.0000   3.182230  -0.667720 -11.642030
160  2 0.0000   3.706080  -1.518790 -11.226060
161  3 0.0000  -0.975030   3.064880  -5.882300
162  3 0.0000   0.878190   4.285040  -5.428830
163  3 0.0000  -1.375030  -1.725830  10.662560
164  3 0.0000   3.113610   1.900700  -1.597750
165  3 0.0000  -2.595970  -4.246690  -6.205370
166  3 0.0000   2.665350  -0.893990 -12.933610
167  3 0.0000   5.442490  -0.397490  -1.355080
168  3 0.0000 -13.989080  -8.700840 -10.900200
169  4 0.0000  -2.494280  -3.366740  -8.010640
170  4 0.0000   3.660770  -2.212760 -14.285490
171  1 0.0000  -5.884710   4.035250   4.036800
172  2 0.0000  -6.516170   4.860260   4.190840
173  1 0.0000  -5.311150   1.981680   3.480550
174  2 0.0000  -5.285100   0.918230   3.168120
175  1 0.0000  -4.186100   2.779480   3.692410
176  2 0.0000  -3.129300   2.516380   3.679450
177  1 0.0000  -9.595620   3.781370   5.750530
178  2 0.0000  -8.670670   3.992430   6.217990
179  1 0.0000 -10.258250   4.787970   0.504930
180  2 0.0000 -11.134090   5.316690   0.057810
181  1 0.0000  -8.269170   4.556690   1.313710
182  2 0.0000  -7.255890   4.837090   1.604000
183  1 0.0000   7.431230  12.500170  -5.838530
184  2 0.0000   6.903960  11.922470  -5.049970
185  1 0.0000  -4.318880  -1.605920   8.591270
186  2 0.0000  -4.190920  -0.702900   9.121660
187  1 0.0000  -0.891290   4.061230   4.808000
188  2 0.0000  -1.201120   4.181250   5.868910
189  1 0.0000   0.335490   3.813300   3.000270
190  2 0.0000   1.219030   3.499210   2.383910
191  1 0.0000  -8.905800  -1.857720   2.986880
192  2 0.0000  -8.818870  -2.874650   2.480150
193  1 0.0000   8.720440  14.057120  -6.722690
194  2 0.0000   9.311230  14.986730  -6.763240
195  3 0.0000  -6.404360   2.784760   3.806980
196  3 0.0000  -4.515470   4.108320   4.004020
197  3 0.0000  -9.880940  -1.468280   3.950940
198  3 0.0000  -9.677100   2.895440   4.681640
199  3 0.0000  -9.009760   5.372440   0.584100
200  3 0.0000   8.144210  13.589530  -5.528090
201  3 0.0000  -3.899340  -2.810940   9.158430
202  3 0.0000   0.327930   3.625990   4.416800
203  4 0.0000  -8.271520   2.357220   3.363100
204  4 0.0000   1.791750   8.730660   7.597340
205  1 0.0000   8.080130   6.318600  -3.471690
206  2 0.0000   7.801820   7.321970  -3.677650
207  1 0.0000   8.477670   4.577160  -2.183900
208  2 0.0000   8.592370   3.934150  -1.319810
209  1 0.0000   8.664060   4.219860  -3.519290
210  2 0.0000  -6.554080   3.180260  -3.954060
211  1 0.0000   3.439190   7.523100  -3.247540
212  2 0.0000   4.393320   7.084560  -2.940760
213  1 0.0000   5.046210   8.842380   0.156780
214  2 0.0000   4.680960   8.270270   1.071250
215  1 0.0000   6.310540   9.579700  -1.486620
216  2 0.0000   7.156110   9.595280  -2.191450
217  1 0.0000  -9.551740  -0.193650   4.177850
218  2 0.0000 -10.005320   0.422460   4.966670
219  1 0.0000  -4.539360   2.782720  -8.410640
220  2 0.0000  -4.088920   2.032340  -9.115280
221  1 0.0000   2.824140  -4.535400 -12.601370
222  2 0.0000   2.692420  -3.934050 -11.687800
223  1 0.0000   3.303150  -5.119250 -14.650980
224  2 0.0000   3.674710  -5.003610 -15.654440
225  1 0.0000   8.203110  13.260920  -7.732480
226  2 0.0000   8.408960  13.286260  -8.806190
227  1 0.0000  -8.057740  -0.800530   2.756830
228  2 0.0000  -7.203670  -0.878300   2.084880
229  3 0.0000   8.191800   5.910940  -2.138190
230  3 0.0000   8.397750   5.316620  -4.343720
231  3 0.0000   7.390650  12.338170  -7.195940
232  3 0.0000   2.377980   6.725530  -3.731980
233  3 0.0000   6.189690   8.522900  -0.576340
234  3 0.0000  -8.489800   0.295460   3.499270
235  3 0.0000  -4.010170   2.820280  -7.091320
236  3 0.0000   3.224680  -4.033410 -13.816060
237  4 0.0000   6.913080   6.772160  -0.844750
238  4 0.0000  -6.667670  -1.560240  -3.636790
239  1 0.0000   7.434800  -7.403800  11.055370
240  2 0.0000   6.387190  -7.650100  10.953150
241  1 0.0000   9.226770  -6.164320  10.820660
242  2 0.0000   9.849630  -5.257210  10.693880
243  1 0.0000   9.582250  -7.405070  11.303570
244  2 0.0000  10.545670  -7.865540  11.474430
245  1 0.0000  -0.976660  -6.919000   8.502920
246  2 0.0000  -0.988710  -7.933440   8.204690
247  1 0.0000   6.736640  -3.196110   7.495000
248  2 0.0000   6.011650  -2.350550   7.765200
249  1 0.0000   7.911020  -4.994610   7.633190
250  2 0.0000   8.442860  -5.791820   8.076980
251  1 0.0000  -2.184030  -0.815600  11.238780
252  2 0.0000  -3.096790  -1.119530  11.825030
253  1 0.0000  -4.338460  -2.667620   3.506060
254  2 0.0000  -4.116390  -1.786800   4.067640
255  1 0.0000   3.465440  -1.209130   1.400580
256  2 0.0000   4.534150  -0.941960   1.510310
257  1 0.0000   1.354000  -1.233930   0.732290
258  2 0.0000   0.580250  -1.488410   0.002290
259  1 0.0000   2.712170   0.536800 -11.229210
260  2 0.0000   2.821440   1.020040 -10.256750
261  1 0.0000  -0.660560   0.379520  10.278650
262  2 0.0000  -0.097620   1.328050  10.175370
263  3 0.0000   7.875890  -6.128460  10.799020
264  3 0.0000   8.422980  -8.173480  11.453870
265  3 0.0000   1.878220   1.147620 -12.166340
266  3 0.0000   0.016280  -6.006100   8.138600
267  3 0.0000   7.103770  -4.198810   8.382700
268  3 0.0000  -1.793500   0.447510  11.087420
269  3 0.0000  -5.359780  -3.593490   3.852540
270  3 0.0000   2.634040  -0.767170   0.386510
271  4 0.0000   6.684710  -4.642500  10.185020
272  4 0.0000  -5.424600  -4.394730   5.634880

