Generated by pymatgen.io.lammps.data.LammpsData

272  atoms

  4  atom types

0.000000 15.423100  xlo xhi
0.000000 15.404200  ylo yhi
0.000000 18.437900  zlo zhi

Masses

1  12.01070
2   1.00794
3  14.00670
4  65.40900

Atoms

1    1 0.0000   4.993630   3.604290   7.225370
2    2 0.0000   5.051490   4.202340   8.104880
3    1 0.0000   4.277150   2.528740   5.442190
4    2 0.0000   3.666720   1.835290   4.808080
5    1 0.0000   5.467950   3.208400   5.147950
6    2 0.0000  -9.460370   3.248420   4.118750
7    1 0.0000   1.071440   0.421210   7.329930
8    2 0.0000   0.695780   0.365440   8.387100
9    1 0.0000   0.193850   4.962130   7.076700
10   2 0.0000  -0.484720   4.910690   7.896070
11   1 0.0000   1.917160   4.975170   5.715410
12   2 0.0000   2.810130   4.554470   5.335750
13   1 0.0000  -1.179150  -1.484700  11.407460
14   2 0.0000  -0.174570  -1.626920  10.982710
15   1 0.0000  -8.311400   5.400830   2.689770
16   2 0.0000  -9.075640   6.146600   2.528580
17   1 0.0000   4.486730   7.146600   4.827460
18   2 0.0000   4.274120   6.227170   4.273000
19   1 0.0000   5.457110   8.481460   6.198560
20   2 0.0000   6.172880   8.678020   6.972980
21   1 0.0000   2.479270   0.890900  -7.329280
22   2 0.0000   2.718530  -0.067470  -6.793940
23   1 0.0000  -2.807260  -0.795300  12.674470
24   2 0.0000  -3.283980  -0.188370  13.442300
25   3 0.0000   3.990450   2.712210   6.769020
26   3 0.0000   5.827680   3.956400   6.192670
27   3 0.0000   1.314220   1.638240  -7.045920
28   3 0.0000   1.822070  -0.576970   6.708600
29   3 0.0000   1.333820   4.201760   6.703420
30   3 0.0000  -1.535870  -0.456730  12.207700
31   3 0.0000  -7.774300   5.130080   3.984840
32   3 0.0000   5.616330   7.274150   5.530220
33   4 0.0000   2.148590   2.727870   7.589700
34   4 0.0000  -8.559650   5.749690   5.805600
35   1 0.0000   1.122950  -4.254560  -2.334710
36   2 0.0000   0.438510  -3.866740  -3.084960
37   1 0.0000   2.817970  -4.518000  -0.983620
38   2 0.0000   3.635740  -4.120940  -0.342150
39   1 0.0000   2.056460  -5.704070  -0.899170
40   2 0.0000   2.155830  -6.597970  -0.293080
41   1 0.0000   8.649570  -1.771140  -5.292540
42   2 0.0000   9.091490  -2.863700  -5.308350
43   1 0.0000   3.371310  -3.096000  -6.536780
44   2 0.0000   3.190950  -3.682540  -7.445550
45   1 0.0000   4.495520  -1.754460  -5.233560
46   2 0.0000   5.242860  -0.947520  -4.906490
47   1 0.0000  -1.582690  -5.293960   0.053900
48   2 0.0000  -0.594770  -4.941370   0.323100
49   1 0.0000  -1.257610  -7.651100  -5.373630
50   2 0.0000  -1.090510  -8.700960  -5.091140
51   1 0.0000   0.949110  -9.250410  -1.829630
52   2 0.0000   1.843350  -8.683490  -2.022910
53   1 0.0000  -1.146040  -9.611210  -1.354700
54   2 0.0000  -2.196670  -9.499620  -1.320150
55   1 0.0000   6.086040  -2.448400  -1.446390
56   2 0.0000   6.658370  -2.251290  -2.387450
57   1 0.0000  -3.168480  -5.744970  -1.404150
58   2 0.0000  -3.585760  -6.088260  -2.406340
59   3 0.0000   2.236680  -3.623230  -1.818350
60   3 0.0000   1.058400  -5.508670  -1.837580
61   3 0.0000   4.851850  -1.996310  -1.194650
62   3 0.0000   8.007040  -1.147320  -6.384340
63   3 0.0000   4.388430  -2.069270  -6.506890
64   3 0.0000  -1.852140  -5.852710  -1.159170
65   3 0.0000  -0.974770  -6.679800  -4.410810
66   3 0.0000  -0.294820  -8.638370  -1.816560
67   4 0.0000   3.248460  -2.056320  -2.469000
68   4 0.0000  -0.498040  -6.678000  -2.354660
69   1 0.0000  -6.094450  -3.555900   2.527170
70   2 0.0000  -5.930660  -2.503340   2.205800
71   1 0.0000  -5.811340  -5.683220   3.236920
72   2 0.0000  -5.211570  -6.595620   3.462900
73   1 0.0000  -7.176070  -5.361220   3.274110
74   2 0.0000   7.394120  -5.931390   3.670120
75   1 0.0000  -1.544460  -5.315950   4.865600
76   2 0.0000  -2.206560  -4.676750   5.455180
77   1 0.0000  -3.091320  -1.924900   4.345060
78   2 0.0000  -3.984130  -2.224520   4.916510
79   1 0.0000  -1.544070  -1.907070   2.772710
80   2 0.0000  -0.912290  -2.160250   1.880610
81   1 0.0000   4.581110  -2.115630   0.086690
82   2 0.0000   3.616950  -1.920440   0.481880
83   1 0.0000   3.596730  -3.663180   3.531630
84   2 0.0000   3.446800  -3.906620   2.456480
85   1 0.0000  -7.566110  -0.143540   2.233450
86   2 0.0000  -7.859400  -0.090410   1.176020
87   1 0.0000  -7.192340  -0.808660   4.321920
88   2 0.0000  -7.147580  -1.495400   5.151700
89   1 0.0000  -3.751380  -4.997620  -0.347710
90   2 0.0000  -4.739390  -4.673270  -0.265590
91   1 0.0000   6.617290  -2.893770  -0.211920
92   2 0.0000   7.616330  -3.148610   0.002480
93   3 0.0000  -5.114260  -4.549240   2.736440
94   3 0.0000  -7.343040  -4.001080   2.744720
95   3 0.0000  -2.730040  -4.641960   0.504650
96   3 0.0000  -1.743430  -5.542450   3.493250
97   3 0.0000  -2.619460  -2.620820   3.214220
98   3 0.0000   5.636430  -2.683190   0.739610
99   3 0.0000   4.853200  -3.237050   3.832870
100  3 0.0000  -7.894680  -1.091250   3.166430
101  4 0.0000  -3.096650  -4.343610   2.452190
102  4 0.0000   6.494810  -2.794060   2.686080
103  1 0.0000  -2.685550   2.443650  -7.185830
104  2 0.0000  -3.030570   1.481920  -7.565150
105  1 0.0000  -2.661970   4.557120  -6.580450
106  2 0.0000  -3.052000   5.570740  -6.504710
107  1 0.0000  -1.700510   3.850480  -5.883680
108  2 0.0000  -0.943230   4.335340  -5.194100
109  1 0.0000  -5.094800   6.367260 -10.450600
110  2 0.0000  -4.192330   6.896100 -10.085900
111  1 0.0000  -8.361690   3.922170  -5.994110
112  2 0.0000  -9.426710   3.938210  -5.638010
113  1 0.0000  -6.280880   3.555350  -5.604010
114  2 0.0000  -5.373000   3.275690  -5.059200
115  1 0.0000   1.142380   2.483390  -8.117540
116  2 0.0000   0.506790   3.396890  -8.034760
117  1 0.0000   3.042280   1.471370   0.719180
118  2 0.0000   4.109310   1.470860   0.573430
119  1 0.0000   1.507060  -0.130010  -3.941150
120  2 0.0000   1.939610  -0.581720  -4.842920
121  1 0.0000   0.218780   0.982930  -2.533440
122  2 0.0000  -0.416450   1.805680  -2.144570
123  1 0.0000  -3.170370  -2.034400  12.115190
124  2 0.0000  -4.047450  -2.604240  12.173770
125  1 0.0000   3.010970   1.387950  -8.504350
126  2 0.0000   3.924490   1.193960  -9.046130
127  3 0.0000  -3.287510   3.645250  -7.453790
128  3 0.0000  -1.716200   2.527190  -6.295280
129  3 0.0000  -2.086550  -2.490710  11.337330
130  3 0.0000  -5.482700   5.055060 -10.047640
131  3 0.0000  -7.477380   3.450810  -5.040340
132  3 0.0000   2.221040   2.434560  -8.941510
133  3 0.0000   2.152870   2.497420   0.466790
134  3 0.0000   0.512960   0.832100  -3.935860
135  4 0.0000  -5.059610   3.718690  -8.432850
136  4 0.0000  -0.310540   1.185480  -5.889760
137  1 0.0000  -4.698130  -3.335640  -8.809690
138  2 0.0000  -4.281460  -2.436900  -9.220460
139  1 0.0000  -6.192850  -4.683600  -7.896540
140  2 0.0000  -7.207590  -4.912620  -7.619170
141  1 0.0000  -4.968230  -5.280280  -7.793950
142  2 0.0000  10.715480  -6.300290  -7.435280
143  1 0.0000   1.115610   0.189610  -1.875440
144  2 0.0000   1.100050   0.015690  -0.729960
145  1 0.0000  -1.562040  -7.120170  -6.613030
146  2 0.0000  -1.895210  -7.625810  -7.500810
147  1 0.0000  -1.219270  -5.543030  -5.112560
148  2 0.0000  -1.252950  -4.584220  -4.462460
149  1 0.0000   9.586140   0.911510  -8.529900
150  2 0.0000   9.267790   0.910050  -7.468060
151  1 0.0000   2.981890  -3.279540  -5.187460
152  2 0.0000   2.278100  -4.026740  -4.710310
153  1 0.0000  -6.659090 -10.621600 -10.666620
154  2 0.0000  -7.278920 -11.599510 -10.668620
155  1 0.0000  -6.115210  -8.607290 -11.290520
156  2 0.0000  -6.169670  -7.667870 -11.849690
157  1 0.0000   0.691690  -5.135880   9.603390
158  2 0.0000   0.517600  -6.112550  10.081530
159  1 0.0000  10.114860  -0.036700 -10.458070
160  2 0.0000  10.141900  -0.795130 -11.191190
161  3 0.0000  -6.065650  -3.462010  -8.491130
162  3 0.0000  -3.998140  -4.462320  -8.399260
163  3 0.0000  -0.310740  -4.231440   9.453250
164  3 0.0000   1.927950  -0.530830  -2.680880
165  3 0.0000  -1.609700  -5.702990  -6.386950
166  3 0.0000   9.469590  -0.236350  -9.203920
167  3 0.0000   3.721940  -2.440460  -4.313340
168  3 0.0000  -7.103270  -9.571580 -11.361350
169  4 0.0000  -1.983560  -4.280270  -7.816850
170  4 0.0000   8.345930  -1.723260  -8.416940
171  1 0.0000  -2.893720   1.440100   2.694670
172  2 0.0000  -3.055470   0.485070   2.322190
173  1 0.0000  -3.181400   3.581300   3.095450
174  2 0.0000  -3.595810   4.581070   3.008840
175  1 0.0000  -1.911450   3.243690   3.485000
176  2 0.0000  -1.107210   3.766700   4.082000
177  1 0.0000  -6.315150   0.281220   4.005830
178  2 0.0000  -5.814940   0.961320   4.758220
179  1 0.0000  -7.499960   4.792200   1.716850
180  2 0.0000  -7.556280   4.839680   0.611760
181  1 0.0000  -6.738390   4.312740   3.728080
182  2 0.0000  -6.125920   3.929000   4.513660
183  1 0.0000   2.466200   5.790590   1.858820
184  2 0.0000   1.724700   5.015470   2.187410
185  1 0.0000   0.124380   6.045200   6.165760
186  2 0.0000  -0.682870   6.779170   6.039880
187  1 0.0000  -0.779730   9.037760   3.094610
188  2 0.0000  -0.670670   8.582850   2.119140
189  1 0.0000  -0.360780   9.396390   5.242870
190  2 0.0000   0.290800   9.345280   6.107340
191  1 0.0000  -5.162750   2.414960  -2.237750
192  2 0.0000  -4.658090   2.710530  -3.180950
193  1 0.0000   4.108390   6.661850   0.713060
194  2 0.0000   4.739070   6.882760  -0.217610
195  3 0.0000  -3.746600   2.438770   2.488980
196  3 0.0000  -1.703200   1.906750   3.245700
197  3 0.0000  -6.498570   2.004260  -2.154740
198  3 0.0000  -6.635010   0.709300   2.725400
199  3 0.0000  -6.563040   4.060810   2.396050
200  3 0.0000   3.274960   5.520230   0.777240
201  3 0.0000   1.235130   6.060290   5.295530
202  3 0.0000   0.126230   8.868900   4.056920
203  4 0.0000  -5.701850   2.307750   1.930480
204  4 0.0000   1.809950   7.684310   4.163800
205  1 0.0000   5.374790   3.132080  -1.858160
206  2 0.0000   6.035890   3.548080  -1.125880
207  1 0.0000   3.517930   2.851970  -3.102710
208  2 0.0000   2.498290   2.981310  -3.333310
209  1 0.0000   4.531800   2.071960  -3.618830
210  2 0.0000 -10.860710   1.323470  -4.439310
211  1 0.0000  -0.446590   4.649430  -1.061810
212  2 0.0000  -0.875490   3.631280  -0.831150
213  1 0.0000   2.522640   0.672350   1.712780
214  2 0.0000   2.970420  -0.320230   2.064600
215  1 0.0000   1.021070   2.155850   1.109280
216  2 0.0000   0.137510   2.787230   1.058440
217  1 0.0000  -6.821890   1.760420  -0.878670
218  2 0.0000  -7.850840   1.487200  -0.488870
219  1 0.0000  -7.677150   4.414190  -7.133280
220  2 0.0000  -8.011130   4.794140  -8.070540
221  1 0.0000   7.600460   0.065770  -5.949290
222  2 0.0000   7.053360   0.874000  -6.513430
223  1 0.0000   8.479280  -0.893850  -4.187960
224  2 0.0000   8.673290  -0.991640  -3.107420
225  1 0.0000   3.708820   7.559510   1.675660
226  2 0.0000   4.029000   8.539130   2.030950
227  1 0.0000  -4.668270   2.379250  -0.895300
228  2 0.0000  -3.710740   2.706500  -0.463540
229  3 0.0000   4.070200   3.529320  -2.017310
230  3 0.0000   5.694100   2.216890  -2.820670
231  3 0.0000   2.690480   6.987990   2.395230
232  3 0.0000   0.927200   4.893680  -1.289670
233  3 0.0000   1.203260   1.070160   1.900080
234  3 0.0000  -5.721120   1.964700  -0.072530
235  3 0.0000  -6.338200   4.034740  -6.897760
236  3 0.0000   7.851510   0.261040  -4.588420
237  4 0.0000   2.726380   4.182980  -0.591830
238  4 0.0000  -7.754670   2.057120  -3.652180
239  1 0.0000   5.584890  -2.304450   8.863990
240  2 0.0000   5.580310  -3.233000   9.452970
241  1 0.0000   5.037720  -0.495150   7.787720
242  2 0.0000   4.514640   0.273670   7.213940
243  1 0.0000   6.370980  -0.364050   8.252250
244  2 0.0000   7.156330   0.410020   8.175720
245  1 0.0000   4.224150  -6.379430   5.901230
246  2 0.0000   3.584130  -5.474980   6.128630
247  1 0.0000   2.788660  -3.546740   4.644940
248  2 0.0000   1.744230  -3.913570   4.702200
249  1 0.0000   4.794170  -2.816590   5.155180
250  2 0.0000   5.624500  -2.521170   5.730430
251  1 0.0000   0.250630  -3.153740   8.778810
252  2 0.0000  -0.234030  -2.288260   8.282840
253  1 0.0000  -2.133550  -0.918350   4.673670
254  2 0.0000  -2.104220  -0.186790   5.421790
255  1 0.0000   1.709590  -0.278190   5.391010
256  2 0.0000   2.177720  -0.899770   4.578400
257  1 0.0000   0.623030   1.340180   6.419200
258  2 0.0000  -0.177670   2.060240   6.541110
259  1 0.0000  10.383960   1.338130 -10.481610
260  2 0.0000  10.826380   1.890540 -11.305750
261  1 0.0000   1.805340  -4.676800   8.908580
262  2 0.0000   2.706240  -5.274120   8.724660
263  3 0.0000   4.590970  -1.733510   8.117810
264  3 0.0000   6.704530  -1.500410   8.883680
265  3 0.0000  10.029390   1.940020  -9.303850
266  3 0.0000   3.590870  -7.286020   5.019770
267  3 0.0000   3.544720  -3.025800   5.676640
268  3 0.0000   1.532650  -3.451000   8.366530
269  3 0.0000  -1.206480  -0.901350   3.633580
270  3 0.0000   0.963190   0.813810   5.124500
271  4 0.0000   2.825160  -2.236710   7.373550
272  4 0.0000  -0.058150   0.830340   3.395550

