Generated by pymatgen.io.lammps.data.LammpsData

272  atoms

  4  atom types

0.000000 15.423100  xlo xhi
0.000000 15.404200  ylo yhi
0.000000 18.437900  zlo zhi

Masses

1  12.01070
2   1.00794
3  14.00670
4  65.40900

Atoms

1    1 0.0000   2.139820   0.794810   9.788010
2    2 0.0000   1.905250   0.907520   8.757870
3    1 0.0000   3.089460   1.500040  11.710670
4    2 0.0000   3.581470   2.199610  12.397200
5    1 0.0000   2.892960   0.121330  11.778600
6    2 0.0000 -12.427150  -0.513460  12.706240
7    1 0.0000   0.335850   0.448660   0.266030
8    2 0.0000  -0.193100   1.191800  -0.387080
9    1 0.0000   2.176470   4.351480   6.727490
10   2 0.0000   1.076580   4.489380   6.796100
11   1 0.0000   4.200120   3.713180   7.159830
12   2 0.0000   4.970630   3.270750   7.741430
13   1 0.0000  -4.093640  -3.270030  14.929900
14   2 0.0000  -4.601380  -4.185160  15.224050
15   1 0.0000  -7.476690   4.511720   2.758230
16   2 0.0000  -6.502020   4.750480   3.280450
17   1 0.0000   1.793230  11.191870   2.158460
18   2 0.0000   0.916790  11.260000   1.538100
19   1 0.0000   3.241810  11.219250   3.755370
20   2 0.0000   3.772870  11.610350   4.578990
21   1 0.0000  -0.794960   5.757620  -7.313220
22   2 0.0000  -1.593960   6.540790  -7.213980
23   1 0.0000  -3.940830  -1.092490  14.667300
24   2 0.0000  -4.225950  -0.026640  14.898180
25   3 0.0000   2.606320   1.882760  10.475770
26   3 0.0000   2.301170  -0.307970  10.593000
27   3 0.0000  -0.288910   4.979810  -6.288360
28   3 0.0000   1.505520  -0.241150  -0.076230
29   3 0.0000   2.949760   3.740970   7.730790
30   3 0.0000  -4.746080  -2.098350  15.203720
31   3 0.0000  -8.699730   4.495980   3.484090
32   3 0.0000   2.227350  12.018650   3.154550
33   4 0.0000   2.545130   3.685720   9.608220
34   4 0.0000  -9.402810   4.731460   5.398930
35   1 0.0000   2.199110  -7.917940  -3.471960
36   2 0.0000   2.079660  -8.048550  -2.420950
37   1 0.0000   3.167080  -7.446840  -5.411930
38   2 0.0000   3.877320  -6.996080  -6.134790
39   1 0.0000   2.336720  -8.542410  -5.569280
40   2 0.0000   2.182730  -9.170930  -6.475460
41   1 0.0000  11.132520   2.754460  -5.550610
42   2 0.0000  11.667590   2.044350  -4.936170
43   1 0.0000   6.989020  -2.899560  -4.798910
44   2 0.0000   7.298080  -1.981580  -5.357480
45   1 0.0000   6.776290  -4.263900  -3.176450
46   2 0.0000   6.853490  -4.718240  -2.159180
47   1 0.0000  -1.366710  -5.650040   1.384160
48   2 0.0000  -1.059490  -5.497490   2.441800
49   1 0.0000  -2.786490  -8.545010  -3.872970
50   2 0.0000  -3.451780  -9.450520  -3.554740
51   1 0.0000   0.828380 -12.755580  -3.097370
52   2 0.0000   1.897500 -12.427350  -3.094410
53   1 0.0000  -1.325190 -12.689630  -3.377260
54   2 0.0000  -2.323810 -12.292180  -3.605470
55   1 0.0000   7.878060  -3.120160   0.330250
56   2 0.0000   6.807260  -2.698690   0.132110
57   1 0.0000  -1.350410  -6.691750  -0.572300
58   2 0.0000  -0.946880  -7.178570  -1.459630
59   3 0.0000   3.166450  -7.090750  -4.026420
60   3 0.0000   1.718080  -8.800210  -4.378000
61   3 0.0000   8.848690  -3.073980  -0.665680
62   3 0.0000   9.888190   3.205920  -5.150460
63   3 0.0000   7.513660  -3.124520  -3.551080
64   3 0.0000  -0.529330  -6.384230   0.594100
65   3 0.0000  -1.365810  -8.416330  -3.914250
66   3 0.0000  -0.186850 -11.888100  -3.522690
67   4 0.0000   4.435230  -5.718410  -3.182350
68   4 0.0000   0.013280 -10.142340  -4.365700
69   1 0.0000  -3.836540  -7.454040   2.811090
70   2 0.0000  -3.104490  -7.475460   2.080230
71   1 0.0000  -4.869100  -7.663740   4.653780
72   2 0.0000  -5.236970  -8.013940   5.656910
73   1 0.0000  -5.336470  -6.542380   3.984600
74   2 0.0000   9.277860  -5.806950   4.264050
75   1 0.0000  -0.047480  -8.558230   4.938060
76   2 0.0000  -0.118310  -8.679770   6.030010
77   1 0.0000  -2.379270  -4.366940   4.600190
78   2 0.0000  -2.944400  -5.149400   5.053070
79   1 0.0000  -1.966670  -2.790590   3.239560
80   2 0.0000  -2.120490  -2.052250   2.367570
81   1 0.0000  10.011500  -3.389560  -0.054270
82   2 0.0000  11.024700  -3.486920  -0.581450
83   1 0.0000   2.664450  -0.925580   6.042900
84   2 0.0000   3.404860  -0.556250   5.364160
85   1 0.0000  -7.288090  -0.123730   3.415800
86   2 0.0000  -6.302740  -0.231600   3.922960
87   1 0.0000  -9.241770  -0.724070   2.667710
88   2 0.0000 -10.140880  -1.403070   2.596450
89   1 0.0000  -2.573250  -6.097030  -0.377170
90   2 0.0000  -3.417900  -6.190190  -1.051520
91   1 0.0000   8.532200  -3.511620   1.573350
92   2 0.0000   8.178180  -3.678060   2.606600
93   3 0.0000  -3.933370  -8.241110   3.892340
94   3 0.0000  -4.715800  -6.410380   2.786720
95   3 0.0000  -2.587290  -5.405370   0.921300
96   3 0.0000  -1.004910  -9.047100   4.079410
97   3 0.0000  -2.916620  -3.750760   3.557800
98   3 0.0000   9.823940  -3.762540   1.238440
99   3 0.0000   1.379860  -1.314360   5.635370
100  3 0.0000  -8.195440  -1.110590   3.485970
101  4 0.0000  -2.752910  -9.779260   4.459130
102  4 0.0000  11.352340  -4.594360   2.146100
103  1 0.0000  -3.370890   5.056970 -11.133490
104  2 0.0000  -3.536830   3.994360 -11.416470
105  1 0.0000  -3.027860   6.983010 -10.140280
106  2 0.0000  -3.209180   7.747320  -9.335970
107  1 0.0000  -2.572370   7.080320 -11.436910
108  2 0.0000  -2.209050   7.942780 -12.061720
109  1 0.0000  -8.725560   8.804760 -11.853330
110  2 0.0000  -8.100310   9.778440 -11.766780
111  1 0.0000 -10.331620   4.896510  -7.342210
112  2 0.0000 -10.240180   3.919100  -6.812530
113  1 0.0000 -11.511520   6.355220  -8.420340
114  2 0.0000 -12.290920   6.822220  -9.074460
115  1 0.0000   0.623440   4.114770  -6.909410
116  2 0.0000   1.201420   3.225020  -6.513640
117  1 0.0000   2.173400   4.782060  -0.594200
118  2 0.0000   1.891100   3.834420  -1.008460
119  1 0.0000   3.294180  -2.860660  -2.796150
120  2 0.0000   4.223950  -2.533780  -3.216970
121  1 0.0000   1.314390  -3.094500  -1.858700
122  2 0.0000   0.297200  -2.821830  -1.529840
123  1 0.0000  -2.802950  -1.677950  14.074740
124  2 0.0000  -1.829290  -1.241140  13.735120
125  1 0.0000  -0.134510   5.434570  -8.532860
126  2 0.0000  -0.301630   5.911440  -9.482860
127  3 0.0000  -3.482960   5.686740  -9.897320
128  3 0.0000  -2.781220   5.864130 -12.024810
129  3 0.0000  -2.891020  -3.081500  14.321720
130  3 0.0000  -9.432830   8.247410 -10.813200
131  3 0.0000 -11.507300   5.002130  -8.076840
132  3 0.0000   0.718140   4.416900  -8.245560
133  3 0.0000   3.325600   4.951550   0.136210
134  3 0.0000   2.229370  -2.151970  -2.268520
135  4 0.0000  -9.550620   8.649850  -8.824910
136  4 0.0000   2.097850  -0.136530  -1.967370
137  1 0.0000  -7.079130   7.551840  -8.810150
138  2 0.0000  -7.155460   7.546950  -9.883810
139  1 0.0000  -7.062070   8.383800  -6.897110
140  2 0.0000  -7.419470   8.946200  -6.023490
141  1 0.0000  -6.141250   7.352020  -6.913500
142  2 0.0000   9.969930   6.894440  -6.150560
143  1 0.0000   1.940760  -4.318960  -1.911430
144  2 0.0000   1.623470  -5.322380  -1.617820
145  1 0.0000  -3.348860  -7.307080  -4.244000
146  2 0.0000  -4.393920  -7.034540  -4.158240
147  1 0.0000  -1.115650  -7.161430  -4.421510
148  2 0.0000  -0.086940  -6.833880  -4.557590
149  1 0.0000   8.057040   4.838510 -10.750820
150  2 0.0000   7.672210   5.783360 -10.379380
151  1 0.0000   5.926010  -3.753540  -5.165810
152  2 0.0000   5.345180  -3.789020  -6.112130
153  1 0.0000  -9.919510  -8.389000 -11.311330
154  2 0.0000 -10.702000  -8.972540 -10.937970
155  1 0.0000  -8.804540  -7.560110 -12.930110
156  2 0.0000  -8.264420  -7.565690 -13.855890
157  1 0.0000  -0.933280  -4.973750  10.645920
158  2 0.0000  -1.540540  -5.855250  10.460430
159  1 0.0000   9.060180   2.893290 -10.809170
160  2 0.0000   9.805450   2.094820 -10.532840
161  3 0.0000  -7.668770   8.580400  -8.099690
162  3 0.0000  -6.153700   6.800610  -8.180150
163  3 0.0000  -0.924540  -4.301680  11.801620
164  3 0.0000   3.257850  -4.177560  -2.426850
165  3 0.0000  -2.328280  -6.419840  -4.593550
166  3 0.0000   8.968060   4.084170 -10.070940
167  3 0.0000   5.805740  -4.594200  -4.063640
168  3 0.0000  -9.510110  -8.657340 -12.596290
169  4 0.0000  -2.090030  -4.554480  -5.140650
170  4 0.0000  10.265430   5.109840  -8.826970
171  1 0.0000  -4.598840   3.477720   3.244830
172  2 0.0000  -5.333950   3.641370   4.091740
173  1 0.0000  -3.477540   2.760870   1.485320
174  2 0.0000  -3.121660   2.285190   0.565600
175  1 0.0000  -2.597710   3.509480   2.282800
176  2 0.0000  -1.559970   3.703630   2.258280
177  1 0.0000  -8.938260   0.514360   2.045770
178  2 0.0000  -9.467200   1.119990   1.259540
179  1 0.0000  -7.820770   4.332980   1.478480
180  2 0.0000  -7.120380   4.422310   0.649340
181  1 0.0000  -9.678250   4.272000   2.591900
182  2 0.0000 -10.745110   4.033740   2.800370
183  1 0.0000   5.396470   6.912170  -2.147300
184  2 0.0000   4.932850   6.424750  -2.963270
185  1 0.0000   2.976270   4.700640   5.634280
186  2 0.0000   2.671170   5.133600   4.571060
187  1 0.0000  -0.646600   6.764670   2.832800
188  2 0.0000  -1.195410   6.583410   1.936810
189  1 0.0000   0.869950   7.538580   4.173330
190  2 0.0000   1.798790   8.116570   4.417100
191  1 0.0000  -6.557890   1.049410  -2.534850
192  2 0.0000  -6.592970   1.087280  -3.637350
193  1 0.0000   6.770770   7.177860  -0.458390
194  2 0.0000   7.496920   6.775630   0.275010
195  3 0.0000  -4.727760   2.798580   2.092630
196  3 0.0000  -3.332490   3.928710   3.384050
197  3 0.0000  -6.774480  -0.133500  -1.825160
198  3 0.0000  -7.689440   0.858210   2.545790
199  3 0.0000  -9.207880   4.104240   1.347690
200  3 0.0000   6.048150   6.192230  -1.160910
201  3 0.0000   4.275650   4.249680   5.935520
202  3 0.0000   0.551400   7.418840   2.873950
203  4 0.0000  -6.488410   2.077760   1.583670
204  4 0.0000   1.355630   8.465540   1.381050
205  1 0.0000   3.784720   2.155420  -1.284350
206  2 0.0000   3.242310   2.096890  -0.341020
207  1 0.0000   5.115050   2.605770  -2.962980
208  2 0.0000   5.920170   3.125300  -3.506290
209  1 0.0000   4.495110   1.363050  -3.216380
210  2 0.0000 -10.710710   0.785060  -4.156090
211  1 0.0000  -0.921660   1.449910  -2.828780
212  2 0.0000  -1.612080   0.589960  -2.577400
213  1 0.0000   1.443330   6.002740  -0.415580
214  2 0.0000   0.467060   6.293020  -0.724890
215  1 0.0000   3.297250   6.193500   0.672280
216  2 0.0000   4.203060   6.753530   1.116460
217  1 0.0000  -6.853680   0.204980  -0.558580
218  2 0.0000  -7.024820  -0.408110   0.324990
219  1 0.0000  -9.717980   6.112250  -7.253580
220  2 0.0000  -8.966390   6.484710  -6.607090
221  1 0.0000   9.591680   4.104620  -6.150400
222  2 0.0000   8.763490   4.808670  -5.929960
223  1 0.0000  11.586640   3.369250  -6.734780
224  2 0.0000  12.388860   3.167690  -7.503640
225  1 0.0000   6.568320   8.429140  -1.033450
226  2 0.0000   7.022150   9.348480  -0.657150
227  1 0.0000  -6.563880   2.098780  -1.578580
228  2 0.0000  -6.380540   3.157480  -1.809570
229  3 0.0000   4.757540   3.062980  -1.644080
230  3 0.0000   3.602740   1.142840  -2.146860
231  3 0.0000   5.769340   8.242700  -2.125110
232  3 0.0000   0.466860   1.374670  -2.765090
233  3 0.0000   2.199100   6.885510   0.304780
234  3 0.0000  -6.692870   1.548450  -0.327030
235  3 0.0000 -10.366450   7.001350  -8.046230
236  3 0.0000  10.519260   4.243000  -7.156920
237  4 0.0000   5.293610   4.531100  -0.379980
238  4 0.0000  -6.640400  -1.985210  -2.324190
239  1 0.0000   3.823520  -4.441250   9.953760
240  2 0.0000   2.990760  -5.152050   9.985710
241  1 0.0000   5.050120  -2.665340   9.918620
242  2 0.0000   5.293220  -1.631210   9.838210
243  1 0.0000   5.907720  -3.768010   9.748600
244  2 0.0000   6.961760  -3.790430   9.812390
245  1 0.0000   3.286780  -5.426460   3.152090
246  2 0.0000   3.945570  -6.201690   3.445530
247  1 0.0000   2.844570  -1.131280   7.405440
248  2 0.0000   3.682030  -1.117230   8.148680
249  1 0.0000   0.734480  -1.630180   6.843630
250  2 0.0000  -0.275510  -1.901080   6.936180
251  1 0.0000  -0.069050  -3.249970  11.676260
252  2 0.0000   0.182070  -2.520660  12.452360
253  1 0.0000  -1.114040  -3.906900   4.893040
254  2 0.0000  -0.428960  -4.360790   5.594500
255  1 0.0000   1.894600  -0.907420   1.040480
256  2 0.0000   2.785700  -1.511560   1.132050
257  1 0.0000   0.113680   0.215610   1.637750
258  2 0.0000  -0.649190   0.596590   2.300920
259  1 0.0000   8.117680   2.923280 -11.856330
260  2 0.0000   7.885290   2.161980 -12.598460
261  1 0.0000  -0.034470  -4.365570   9.829490
262  2 0.0000   0.328810  -4.496330   8.777070
263  3 0.0000   3.737030  -3.152330   9.917990
264  3 0.0000   5.111540  -4.925100   9.924630
265  3 0.0000   7.464740   4.148130 -11.839460
266  3 0.0000   2.426060  -5.410770   2.118890
267  3 0.0000   1.597820  -1.477340   7.873790
268  3 0.0000   0.495030  -3.275820  10.481450
269  3 0.0000  -0.836320  -2.859780   3.988120
270  3 0.0000   1.010800  -0.714080   2.039440
271  4 0.0000   1.932830  -2.111250   9.781040
272  4 0.0000   1.004430  -1.872870   3.725230

