Generated by pymatgen.io.lammps.data.LammpsData

272  atoms

  4  atom types

0.000000 15.423100  xlo xhi
0.000000 15.404200  ylo yhi
0.000000 18.437900  zlo zhi

Masses

1  12.01070
2   1.00794
3  14.00670
4  65.40900

Atoms

1    1 0.0000   5.538520  -5.634400   6.167540
2    2 0.0000   5.561810  -4.492450   6.002240
3    1 0.0000   5.999700  -7.672290   6.712960
4    2 0.0000   6.509490  -8.563530   7.253590
5    1 0.0000   5.048500  -7.690430   5.723490
6    2 0.0000 -10.827410  -8.573540   5.209460
7    1 0.0000   6.296040   0.206190   0.475860
8    2 0.0000   7.303110   0.468480   0.779270
9    1 0.0000  -2.427710   2.571450  11.458310
10   2 0.0000  -2.847440   2.240120  10.521000
11   1 0.0000  -1.243160   2.273240  13.311470
12   2 0.0000  -0.732450   1.728600  14.143860
13   1 0.0000  -4.381440   1.366120  15.115380
14   2 0.0000  -5.261280   1.542420  14.492350
15   1 0.0000  -5.186970   4.031690   0.873320
16   2 0.0000  -4.043690   4.036280   0.760320
17   1 0.0000   0.239200   9.993930   4.842850
18   2 0.0000  -0.181950   9.675450   3.893050
19   1 0.0000   0.392600  10.584350   6.982250
20   2 0.0000  -0.069910  10.750310   7.945510
21   1 0.0000   2.191450   4.148030  -6.500970
22   2 0.0000   1.434560   3.709330  -7.114960
23   1 0.0000  -2.701490   0.265800  16.066930
24   2 0.0000  -1.869000  -0.430860  16.126860
25   3 0.0000   6.361210  -6.306940   6.987600
26   3 0.0000   4.708140  -6.385200   5.348350
27   3 0.0000   1.816750   4.711170  -5.261740
28   3 0.0000   5.880750  -1.144500   0.619430
29   3 0.0000  -2.110240   1.616380  12.489930
30   3 0.0000  -3.510100   0.333630  14.949870
31   3 0.0000  -5.966280   3.030030   1.465030
32   3 0.0000  -0.561020  10.215960   5.949170
33   4 0.0000   5.862780   5.594370  13.228500
34   4 0.0000 -10.847120   1.965520   4.541580
35   1 0.0000   0.674600  -2.085580  -2.340480
36   2 0.0000   0.582390  -1.877360  -3.408210
37   1 0.0000   0.404930  -3.176560  -0.478200
38   2 0.0000  -0.156750  -3.802890   0.182300
39   1 0.0000   1.104190  -1.987640  -0.208350
40   2 0.0000   1.591270  -1.635740   0.696460
41   1 0.0000   3.407550  -5.002740 -17.439810
42   2 0.0000   2.469110  -5.375910 -17.706900
43   1 0.0000   4.445290  -0.094990  -5.530840
44   2 0.0000   4.739970   0.103290  -6.563990
45   1 0.0000   4.541110  -0.964070  -3.558420
46   2 0.0000   4.685140  -1.616990  -2.614810
47   1 0.0000  -3.354330  -4.019750  -1.134040
48   2 0.0000  -2.828150  -3.178090  -0.648950
49   1 0.0000  -0.752860  -3.484180  -5.902860
50   2 0.0000   0.152450  -4.021010  -6.372540
51   1 0.0000   0.166830  -7.186270  -3.969920
52   2 0.0000  -0.330370  -7.117880  -4.985120
53   1 0.0000   0.501680  -6.898810  -1.834770
54   2 0.0000   0.526730  -6.462270  -0.841480
55   1 0.0000   7.473720  -4.227180  -3.396210
56   2 0.0000   7.725780  -4.913020  -4.199550
57   1 0.0000  -3.472120  -5.808710  -2.406630
58   2 0.0000  -3.166600  -6.447070  -3.209230
59   3 0.0000   0.036960  -3.157590  -1.807130
60   3 0.0000   1.226590  -1.315960  -1.380750
61   3 0.0000   7.189230  -2.894010  -3.555230
62   3 0.0000   3.735320  -4.944720 -16.072480
63   3 0.0000   5.148820  -0.978300  -4.760450
64   3 0.0000  -2.745630  -4.646390  -2.164750
65   3 0.0000  -1.357720  -3.777360  -4.684860
66   3 0.0000   0.020250  -6.290540  -2.977890
67   4 0.0000   2.606290   0.138790  -1.775450
68   4 0.0000  -0.832460  -4.545950  -2.964610
69   1 0.0000  -7.284900  -6.915760   0.893370
70   2 0.0000  -7.072860  -7.192750  -0.125750
71   1 0.0000  -8.395280  -6.940310   2.793090
72   2 0.0000  -9.033470  -7.385490   3.575790
73   1 0.0000  -7.417160  -5.934840   2.862500
74   2 0.0000   8.287900  -5.204140   3.545160
75   1 0.0000   0.867710 -13.025320   6.307520
76   2 0.0000  -0.162630 -13.269460   6.607750
77   1 0.0000  -3.165510  -3.215590   2.795710
78   2 0.0000  -3.124010  -2.348050   2.147200
79   1 0.0000  -3.977170  -5.101670   3.435570
80   2 0.0000  -4.582980  -6.020060   3.551570
81   1 0.0000   7.150720  -2.283960  -2.385030
82   2 0.0000   7.042200  -1.240660  -2.140870
83   1 0.0000  11.320440  -4.279160   8.163250
84   2 0.0000  12.059850  -3.392960   8.120890
85   1 0.0000  -8.116570   1.592600   4.035570
86   2 0.0000  -8.575070   0.778300   3.374160
87   1 0.0000  -8.027890   2.938760   5.711440
88   2 0.0000  -8.284650   3.760500   6.482100
89   1 0.0000  -4.559990  -5.757610  -1.550420
90   2 0.0000  -5.316740  -6.498310  -1.273180
91   1 0.0000   7.477140  -4.406450  -2.011210
92   2 0.0000   7.555930  -5.330810  -1.455240
93   3 0.0000  -8.272650  -7.584660   1.560000
94   3 0.0000  -6.775310  -5.929380   1.652290
95   3 0.0000  -4.506090  -4.647380  -0.754470
96   3 0.0000   0.993020 -11.824370   5.568380
97   3 0.0000  -4.132750  -4.154630   2.429680
98   3 0.0000   7.323070  -3.219620  -1.373440
99   3 0.0000  11.443000  -5.504150   7.454340
100  3 0.0000  -8.897900   2.219590   4.907430
101  4 0.0000  -0.426180 -10.843750   4.548260
102  4 0.0000   9.933960  -4.713410   1.069500
103  1 0.0000  -1.881270   6.910770 -13.211540
104  2 0.0000  -1.472910   7.322170 -14.135150
105  1 0.0000  -2.269400   5.654420 -11.509550
106  2 0.0000  -2.208160   4.806700 -10.848970
107  1 0.0000  -2.741650   6.925230 -11.232870
108  2 0.0000  -3.177650   7.263320 -10.320960
109  1 0.0000 -14.703000   6.349360 -16.342850
110  2 0.0000 -15.134140   5.819270 -17.207040
111  1 0.0000  -8.816170   2.828830  -4.015370
112  2 0.0000  -9.797020   2.577510  -4.252260
113  1 0.0000  -7.071240   4.202850  -4.088010
114  2 0.0000  -6.418680   5.015710  -4.552040
115  1 0.0000   2.983130   5.358350  -4.844650
116  2 0.0000   3.002040   6.066020  -4.014400
117  1 0.0000   3.546500   3.470140   1.910000
118  2 0.0000   2.680570   2.828890   1.810730
119  1 0.0000   1.545410   2.730930  -2.723890
120  2 0.0000   2.102320   2.561670  -3.667120
121  1 0.0000   0.310510   3.636710  -1.209680
122  2 0.0000  -0.502160   4.351550  -0.832180
123  1 0.0000  -3.104900   1.273900  16.936420
124  2 0.0000  -2.450550   1.626240  17.717180
125  1 0.0000   3.493780   4.481950  -6.789840
126  2 0.0000   4.172350   4.197260  -7.538560
127  3 0.0000  -1.699000   5.631570 -12.740740
128  3 0.0000  -2.563480   7.655070 -12.370520
129  3 0.0000  -4.248320   1.892880  16.375760
130  3 0.0000 -14.970120   6.064590 -15.014990
131  3 0.0000  -8.290270   3.912570  -4.642020
132  3 0.0000   3.993230   5.192320  -5.704700
133  3 0.0000   4.431410   3.393210   2.972790
134  3 0.0000   0.780200   3.780730  -2.507820
135  4 0.0000  -5.148710   3.514580  -1.948840
136  4 0.0000   0.127860   5.036410  -4.173860
137  1 0.0000  -2.717180   4.528320  -3.120410
138  2 0.0000  -2.480720   3.502550  -3.506900
139  1 0.0000  -3.404520   6.142660  -1.812880
140  2 0.0000  -4.121160   6.784380  -1.266280
141  1 0.0000  -2.211100   6.562630  -2.397050
142  2 0.0000  13.798160   7.450940  -2.230070
143  1 0.0000   0.873790   2.513990  -0.640930
144  2 0.0000   0.683680   1.932080   0.289500
145  1 0.0000  -1.376740  -2.381930  -6.456850
146  2 0.0000  -1.207260  -1.865800  -7.439380
147  1 0.0000  -2.362190  -2.832230  -4.577640
148  2 0.0000  -2.862700  -2.811890  -3.644890
149  1 0.0000   4.618050  -1.079610 -13.355910
150  2 0.0000   5.418750  -1.119000 -12.563490
151  1 0.0000   3.417150   0.513170  -4.732640
152  2 0.0000   2.709340   1.320380  -4.959490
153  1 0.0000 -14.081560  -8.496050 -14.363940
154  2 0.0000 -14.164200  -8.408240 -13.282990
155  1 0.0000 -13.665620  -8.154770 -16.458750
156  2 0.0000 -13.197840  -7.672140 -17.370630
157  1 0.0000  -5.855930   0.782360  11.503900
158  2 0.0000  -5.428070   1.551300  10.920360
159  1 0.0000   2.855840  -1.744430 -14.521810
160  2 0.0000   2.253300  -2.611030 -14.946580
161  3 0.0000  -3.768910   4.866540  -2.312080
162  3 0.0000  -1.758560   5.478740  -3.189620
163  3 0.0000  -5.065290  -0.098400  12.215590
164  3 0.0000   1.642670   1.883470  -1.681500
165  3 0.0000  -2.424900  -1.962640  -5.624090
166  3 0.0000   3.791290  -2.151560 -13.541050
167  3 0.0000   3.533600  -0.098910  -3.492930
168  3 0.0000 -13.289360  -7.726380 -15.158520
169  4 0.0000  -3.220280   0.015060  -5.441940
170  4 0.0000   6.817430  -2.832020 -17.880990
171  1 0.0000  -3.003480   3.014120   3.723350
172  2 0.0000  -3.690510   3.799660   4.199880
173  1 0.0000  -2.354670   1.221490   2.566600
174  2 0.0000  -2.358680   0.290770   2.030170
175  1 0.0000  -1.285420   2.030770   2.915450
176  2 0.0000  -0.162910   2.035860   2.644760
177  1 0.0000  -6.753950   2.755660   5.241210
178  2 0.0000  -5.856060   3.328430   5.547940
179  1 0.0000  -6.008700   5.105010   0.465280
180  2 0.0000  -5.746330   6.104880   0.159670
181  1 0.0000  -7.181510   3.601730   1.472320
182  2 0.0000  -8.034090   3.103260   1.961610
183  1 0.0000   7.256430  11.440620  -7.423570
184  2 0.0000   8.283810  11.320820  -7.036180
185  1 0.0000  -1.693370   3.724050  11.742460
186  2 0.0000  -1.540750   4.737830  11.212570
187  1 0.0000   2.347880   3.713290   5.455510
188  2 0.0000   2.721190   4.540210   4.813840
189  1 0.0000   2.161960   1.856000   6.517270
190  2 0.0000   2.434230   0.863810   6.925590
191  1 0.0000  -5.787910  -1.780890   0.252610
192  2 0.0000  -5.734150  -2.284360  -0.716500
193  1 0.0000   5.245080  12.297620  -7.434370
194  2 0.0000   4.385400  12.863240  -6.989890
195  3 0.0000  -3.473210   1.879910   3.117430
196  3 0.0000  -1.678570   3.225860   3.580400
197  3 0.0000  -6.637690  -2.229980   1.284960
198  3 0.0000  -6.816980   1.822230   4.162300
199  3 0.0000  -7.291310   4.813760   0.867580
200  3 0.0000   6.433910  12.339580  -6.758120
201  3 0.0000  -0.994240   3.524950  12.906830
202  3 0.0000   3.101580   2.659390   5.893640
203  4 0.0000  -5.388840   1.395020   2.836920
204  4 0.0000   3.047290   9.340170   3.990330
205  1 0.0000   6.401200   5.993060  -2.359770
206  2 0.0000   7.059980   5.108020  -2.286810
207  1 0.0000   5.140340   7.653750  -1.739730
208  2 0.0000   4.615880   8.397930  -1.139030
209  1 0.0000   5.141950   7.631620  -3.132220
210  2 0.0000 -10.716340   8.348070  -3.844110
211  1 0.0000   0.859440   7.215150  -2.173630
212  2 0.0000   1.301380   6.346820  -1.675300
213  1 0.0000   3.972060   4.564420   1.113660
214  2 0.0000   3.571240   4.918600   0.212640
215  1 0.0000   5.336750   4.377670   2.826950
216  2 0.0000   6.116140   4.606470   3.577800
217  1 0.0000  -6.519910  -1.275590   2.253030
218  2 0.0000  -7.148770  -1.249680   3.167500
219  1 0.0000  -7.960870   2.458450  -2.961520
220  2 0.0000  -8.231410   1.625650  -2.238970
221  1 0.0000   4.908860  -4.308810 -15.958880
222  2 0.0000   5.468550  -4.134660 -15.038310
223  1 0.0000   4.486800  -4.462180 -18.073050
224  2 0.0000   4.778320  -4.525340 -19.126510
225  1 0.0000   5.337990  11.426460  -8.505710
226  2 0.0000   4.607960  11.000490  -9.169570
227  1 0.0000  -5.100950  -0.647200   0.713640
228  2 0.0000  -4.264620  -0.141220   0.183950
229  3 0.0000   6.005710   6.692380  -1.282680
230  3 0.0000   5.900880   6.553370  -3.537860
231  3 0.0000   6.659160  10.898690  -8.462980
232  3 0.0000   0.696090   7.049250  -3.504800
233  3 0.0000   5.124960   5.076330   1.665860
234  3 0.0000  -5.625910  -0.365600   1.978150
235  3 0.0000  -6.809590   3.328770  -2.996000
236  3 0.0000   5.494810  -4.082490 -17.196580
237  4 0.0000   6.549860   6.128050   0.759740
238  4 0.0000  -8.652770  -1.946950  -5.189060
239  1 0.0000   6.669120  -7.783020  10.893250
240  2 0.0000   5.860380  -7.058920  11.139270
241  1 0.0000   8.135890  -8.801810   9.632250
242  2 0.0000   8.919330  -8.866310   8.865450
243  1 0.0000   7.847810  -9.561750  10.789120
244  2 0.0000   8.320910 -10.483560  11.140910
245  1 0.0000   1.658950  -4.857790   6.427970
246  2 0.0000   2.654140  -4.690740   6.888060
247  1 0.0000  10.019300  -4.221650   8.641470
248  2 0.0000   9.507180  -3.447720   9.242140
249  1 0.0000  10.226260  -6.109420   7.566120
250  2 0.0000  10.024180  -7.142130   7.211970
251  1 0.0000  -5.901010  -0.850120  12.894450
252  2 0.0000  -5.628820  -1.660300  13.518940
253  1 0.0000  -2.535430  -3.619390   3.930910
254  2 0.0000  -1.767390  -3.212160   4.618160
255  1 0.0000   4.607210  -1.146320   0.181180
256  2 0.0000   3.990050  -2.109710   0.126900
257  1 0.0000   5.241970   0.907840  -0.106260
258  2 0.0000   5.222390   1.949790  -0.315560
259  1 0.0000   3.133070  -0.421690 -14.813550
260  2 0.0000   2.651680   0.308420 -15.540880
261  1 0.0000  -7.157880   0.318560  11.637120
262  2 0.0000  -8.038730   0.749270  11.171540
263  3 0.0000   7.397020  -7.602240   9.769820
264  3 0.0000   6.871320  -8.934300  11.557850
265  3 0.0000   4.208350   0.047440 -14.103930
266  3 0.0000   1.541460  -5.197960   5.067110
267  3 0.0000   9.280160  -5.370800   8.235030
268  3 0.0000  -7.200810  -0.654680  12.591380
269  3 0.0000  -2.992470  -4.821320   4.334450
270  3 0.0000   4.146920   0.082720  -0.291700
271  4 0.0000   7.362600  -5.821640   8.746650
272  4 0.0000  -2.563180  -5.798690   6.056270

