Generated by pymatgen.io.lammps.data.LammpsData

272  atoms

  4  atom types

0.000000 15.423100  xlo xhi
0.000000 15.404200  ylo yhi
0.000000 18.437900  zlo zhi

Masses

1  12.01070
2   1.00794
3  14.00670
4  65.40900

Atoms

1    1 0.0000  4.517440   2.906680   7.094330
2    2 0.0000  4.694220   2.640050   6.038460
3    1 0.0000  3.775580   3.441920   9.064350
4    2 0.0000  3.057520   3.683460   9.832790
5    1 0.0000  5.106350   3.867450   9.000930
6    2 0.0000 -9.588120   4.190250   9.750920
7    1 0.0000  2.211840   0.151460   4.721960
8    2 0.0000  3.223240  -0.330050   4.986030
9    1 0.0000 -1.213910   3.421450   7.168890
10   2 0.0000 -1.932270   2.605980   7.398520
11   1 0.0000  0.607060   4.528250   6.808430
12   2 0.0000  1.594650   4.835450   7.101340
13   1 0.0000 -2.925360   0.464710  13.860530
14   2 0.0000 -3.252340   1.101780  13.069600
15   1 0.0000 -7.891470   5.309750   4.571470
16   2 0.0000 -7.775140   6.138080   5.254530
17   1 0.0000  1.710160   9.117110   6.837040
18   2 0.0000  0.801780   9.724670   6.824380
19   1 0.0000  3.682920   8.464950   7.451550
20   2 0.0000  4.667480   8.490740   7.916930
21   1 0.0000 -0.480790  -0.526720  -8.297780
22   2 0.0000 -1.202810  -1.151820  -7.784730
23   1 0.0000 -2.703500  -0.540260  15.724790
24   2 0.0000 -2.922030  -1.005330  16.695850
25   3 0.0000  3.382900   2.792740   7.876760
26   3 0.0000  5.522860   3.575850   7.707090
27   3 0.0000  0.502670  -0.063980  -7.416400
28   3 0.0000  1.378050   0.917220   5.568570
29   3 0.0000  0.144520   3.371420   7.399450
30   3 0.0000 -3.657490   0.124200  14.948080
31   3 0.0000 -7.921210   4.083840   5.125040
32   3 0.0000  2.813040   9.564340   7.489260
33   4 0.0000  1.724460   1.684030   7.346730
34   4 0.0000 -8.066350   3.374770   6.883040
35   1 0.0000  2.329350  -3.948750  -3.670380
36   2 0.0000  1.645330  -3.109140  -3.870010
37   1 0.0000  4.148270  -5.019010  -3.209590
38   2 0.0000  5.248370  -5.184860  -3.176360
39   1 0.0000  3.131800  -5.951010  -3.232100
40   2 0.0000  3.186310  -6.952600  -2.754010
41   1 0.0000  9.656910   0.703920  -7.659880
42   2 0.0000  9.969810   0.901730  -8.733110
43   1 0.0000  8.604030  -2.450750  -3.171880
44   2 0.0000  9.578630  -2.985020  -3.231750
45   1 0.0000  7.188570  -0.790340  -2.590910
46   2 0.0000  6.803770   0.103900  -2.297540
47   1 0.0000 -2.020910  -5.547620  -0.924260
48   2 0.0000 -2.941830  -5.892410  -1.472420
49   1 0.0000 -1.522690  -3.814820  -4.470720
50   2 0.0000 -1.546520  -3.283420  -3.498350
51   1 0.0000  1.132270  -8.543060  -1.714560
52   2 0.0000  1.200320  -7.958580  -0.782810
53   1 0.0000  0.944150  -8.985770  -3.858580
54   2 0.0000  0.514160  -8.884800  -4.888110
55   1 0.0000  3.330910  -2.426490   0.227830
56   2 0.0000  2.254080  -2.401470  -0.118590
57   1 0.0000  0.091410  -4.986630  -0.396390
58   2 0.0000  1.157700  -4.733950  -0.704210
59   3 0.0000  3.662110  -3.718290  -3.446060
60   3 0.0000  1.968040  -5.245260  -3.506910
61   3 0.0000  4.420490  -2.285400  -0.662420
62   3 0.0000  8.675130  -0.280950  -7.389650
63   3 0.0000  8.545100  -1.069570  -2.813460
64   3 0.0000 -0.718860  -5.496290  -1.416560
65   3 0.0000 -1.034080  -5.102080  -4.612110
66   3 0.0000  0.647030  -8.024890  -2.844530
67   4 0.0000  4.340450  -2.054360  -2.734180
68   4 0.0000  0.123890  -6.147380  -3.207450
69   1 0.0000 -6.150460  -4.239900   1.884640
70   2 0.0000 -5.942650  -3.416460   1.269820
71   1 0.0000 -5.849870  -6.166220   2.856930
72   2 0.0000 -5.234250  -7.017830   3.156270
73   1 0.0000 -7.128470  -5.706030   3.204490
74   2 0.0000  7.570510  -6.155940   3.847190
75   1 0.0000 -2.939530  -6.157440   4.598810
76   2 0.0000 -3.825280  -5.607640   5.004050
77   1 0.0000 -3.188680  -2.701820   3.853940
78   2 0.0000 -3.526180  -3.407990   4.587510
79   1 0.0000 -2.524090  -2.010100   1.878480
80   2 0.0000 -2.310350  -1.942400   0.785180
81   1 0.0000  5.500340  -2.674530   0.014040
82   2 0.0000  6.512220  -2.477110  -0.255820
83   1 0.0000  5.758650  -1.893340   5.254320
84   2 0.0000  6.578490  -1.246230   5.106540
85   1 0.0000 -8.481030  -0.218670   2.021790
86   2 0.0000 -9.618450  -0.123090   1.951220
87   1 0.0000 -6.504230  -0.937570   2.499110
88   2 0.0000 -5.646440  -1.586350   2.693400
89   1 0.0000 -0.734010  -4.713110   0.686880
90   2 0.0000 -0.414470  -4.163210   1.593030
91   1 0.0000  3.905500  -2.829560   1.449760
92   2 0.0000  3.472880  -3.018310   2.450610
93   3 0.0000 -5.238850  -5.263040   1.969900
94   3 0.0000 -7.316850  -4.521510   2.576690
95   3 0.0000 -2.074880  -5.110190   0.342260
96   3 0.0000 -2.363400  -6.058510   3.308720
97   3 0.0000 -3.236640  -3.027600   2.519820
98   3 0.0000  5.228490  -2.985430   1.287140
99   3 0.0000  5.678850  -3.119850   4.536610
100  3 0.0000 -7.863340  -1.345230   2.487330
101  4 0.0000 -3.257120  -4.960410   1.929350
102  4 0.0000  6.597770  -3.178080   2.740350
103  1 0.0000 -2.740950   7.674430  -9.180370
104  2 0.0000 -3.813970   7.475500  -9.111410
105  1 0.0000 -0.583190   7.144490  -9.464360
106  2 0.0000  0.221470   6.406530  -9.699930
107  1 0.0000 -0.734590   8.497180  -9.175140
108  2 0.0000 -0.033360   9.325090  -9.330600
109  1 0.0000 -5.280850   5.229920  -8.825560
110  2 0.0000 -4.908140   5.752850  -7.912570
111  1 0.0000 -0.776350   3.764900  -5.931830
112  2 0.0000 -0.423690   4.131010  -4.957130
113  1 0.0000 -1.452460   2.580980  -7.636520
114  2 0.0000 -1.516500   1.766950  -8.389220
115  1 0.0000  1.366880   0.608320  -8.197440
116  2 0.0000  2.264450   1.087490  -7.696950
117  1 0.0000 -1.038240   3.210980  -0.714140
118  2 0.0000 -1.163170   3.793630  -1.640920
119  1 0.0000  2.224290  -0.569720  -4.476810
120  2 0.0000  2.287410  -1.355870  -5.250480
121  1 0.0000  1.658240   1.187260  -3.329400
122  2 0.0000  1.038780   2.057450  -3.064930
123  1 0.0000 -1.469030  -0.509130  15.179760
124  2 0.0000 -0.521170  -0.758950  15.676380
125  1 0.0000 -0.089930  -0.148820  -9.571540
126  2 0.0000 -0.541350  -0.461580 -10.520310
127  3 0.0000 -1.907890   6.640160  -9.457510
128  3 0.0000 -2.104480   8.847360  -9.036990
129  3 0.0000 -1.629630   0.101870  13.976150
130  3 0.0000 -4.478990   4.558900  -9.819720
131  3 0.0000 -0.958730   2.452340  -6.368330
132  3 0.0000  1.173980   0.505210  -9.572110
133  3 0.0000  0.169830   3.295970  -0.079840
134  3 0.0000  1.514940   0.581890  -4.556860
135  4 0.0000 -2.466170   4.722960  -9.652090
136  4 0.0000 -0.125540   0.717060  -5.711670
137  1 0.0000 -4.996550  -3.006170  -8.301270
138  2 0.0000 -4.611380  -2.153180  -7.732170
139  1 0.0000 -5.208010  -4.842350  -9.410280
140  2 0.0000 -4.919260  -5.824760  -9.780390
141  1 0.0000 -6.462340  -4.211430  -9.341560
142  2 0.0000  7.976400  -4.589350  -9.660560
143  1 0.0000  2.544500   0.506500  -2.531270
144  2 0.0000  2.830330   0.795880  -1.456650
145  1 0.0000 -1.983870  -3.408690  -5.704220
146  2 0.0000 -2.444790  -2.517950  -6.144250
147  1 0.0000 -1.223310  -5.434280  -5.908930
148  2 0.0000 -0.860950  -6.389280  -6.363560
149  1 0.0000  7.292480   0.625450 -10.487550
150  2 0.0000  6.331150   0.900040  -9.925650
151  1 0.0000  7.292820  -2.918130  -3.211880
152  2 0.0000  6.887020  -3.899560  -3.376140
153  1 0.0000 -5.305400 -11.334860 -10.761300
154  2 0.0000 -4.866970 -11.836700 -11.639160
155  1 0.0000 -6.573590 -10.441440  -9.243370
156  2 0.0000 -7.479230 -10.074120  -8.819710
157  1 0.0000 -1.057290  -3.326060   7.443250
158  2 0.0000 -1.980170  -3.056230   6.942540
159  1 0.0000  8.777280  -0.577970 -11.457600
160  2 0.0000  9.362150  -1.493910 -11.700130
161  3 0.0000 -4.282970  -4.046850  -8.794840
162  3 0.0000 -6.326710  -3.093510  -8.614310
163  3 0.0000 -1.074670  -3.697770   8.740930
164  3 0.0000  2.942550  -0.612800  -3.279350
165  3 0.0000 -1.820580  -4.414340  -6.642650
166  3 0.0000  7.917830  -0.560760 -10.376980
167  3 0.0000  6.425390  -1.860900  -2.916160
168  3 0.0000 -6.617530 -11.099170 -10.432170
169  4 0.0000 -2.359970  -4.505580  -8.480380
170  4 0.0000  7.880140  -1.606770  -8.583310
171  1 0.0000 -3.721730   1.838490   4.286140
172  2 0.0000 -3.503420   0.929350   4.926410
173  1 0.0000 -4.119880   3.904330   3.777500
174  2 0.0000 -4.620460   4.928020   3.880420
175  1 0.0000 -3.104590   3.390890   2.871130
176  2 0.0000 -2.430060   3.872130   2.102850
177  1 0.0000 -6.344110   0.383810   2.171620
178  2 0.0000 -5.440460   0.979270   2.078970
179  1 0.0000 -7.922840   5.221380   3.209400
180  2 0.0000 -7.902670   6.025510   2.470460
181  1 0.0000 -7.824940   3.236370   4.045820
182  2 0.0000 -7.620030   2.126860   4.114520
183  1 0.0000  1.097800   5.586780   2.524800
184  2 0.0000  0.055280   5.292760   2.415890
185  1 0.0000 -1.487740   4.599650   6.416440
186  2 0.0000 -2.467200   4.766430   5.972930
187  1 0.0000 -1.211420   8.609260   3.350750
188  2 0.0000 -0.579030   8.376550   2.474550
189  1 0.0000 -2.031900   8.542770   5.385120
190  2 0.0000 -2.062920   8.174440   6.396720
191  1 0.0000 -6.251720   3.408480  -2.457480
192  2 0.0000 -5.865510   3.819410  -3.358900
193  1 0.0000  3.106490   6.052470   2.007540
194  2 0.0000  4.105390   5.911710   1.470270
195  3 0.0000 -4.510310   2.875380   4.649830
196  3 0.0000 -2.799020   2.114850   3.234850
197  3 0.0000 -6.068440   2.026800  -2.193090
198  3 0.0000 -7.574240   0.870320   1.885940
199  3 0.0000 -7.880610   3.912170   2.865710
200  3 0.0000  1.938450   5.433740   1.511110
201  3 0.0000 -0.314740   5.313250   6.151380
202  3 0.0000 -0.947480   8.126280   4.593480
203  4 0.0000 -7.985950   2.789460   1.318770
204  4 0.0000  0.509440   6.856620   5.118210
205  1 0.0000  4.440230   3.326420   0.622170
206  2 0.0000  4.261610   3.538590   1.679250
207  1 0.0000  4.417660   3.316890  -1.556850
208  2 0.0000  3.951360   3.373800  -2.550950
209  1 0.0000  5.733450   3.230000  -1.176100
210  2 0.0000 -8.785670   3.191850  -1.825210
211  1 0.0000  1.576360   5.364910  -3.258780
212  2 0.0000  1.885360   4.337550  -3.585660
213  1 0.0000 -1.856500   2.287920  -0.123380
214  2 0.0000 -2.844260   1.861880  -0.385810
215  1 0.0000  0.123060   2.392300   0.978740
216  2 0.0000  0.871140   2.248870   1.770610
217  1 0.0000 -6.282620   1.849830  -0.862770
218  2 0.0000 -6.244410   0.784180  -0.518920
219  1 0.0000 -1.252860   4.641840  -7.003010
220  2 0.0000 -1.394320   5.718910  -6.964350
221  1 0.0000  8.470850  -0.309090  -6.066280
222  2 0.0000  7.735390  -1.041580  -5.522930
223  1 0.0000  9.995620   1.349440  -6.386690
224  2 0.0000 10.724260   2.121860  -6.160290
225  1 0.0000  2.938210   6.425850   3.337420
226  2 0.0000  3.661320   6.944550   3.897470
227  1 0.0000 -6.435890   3.979370  -1.136740
228  2 0.0000 -6.385160   4.997150  -0.728270
229  3 0.0000  3.574880   3.340720  -0.375400
230  3 0.0000  5.773380   3.285290   0.222330
231  3 0.0000  1.631170   6.140090   3.682720
232  3 0.0000  1.681700   5.607440  -1.913440
233  3 0.0000 -1.088080   1.733530   0.920260
234  3 0.0000 -6.469240   3.017110  -0.140980
235  3 0.0000 -1.611680   3.883830  -8.097970
236  3 0.0000  9.309100   0.673050  -5.433780
237  4 0.0000  1.872510   4.397350  -0.270680
238  4 0.0000 -5.701730   0.448020  -3.405660
239  1 0.0000  5.517080  -3.086130   9.158720
240  2 0.0000  6.077830  -3.505740   8.309730
241  1 0.0000  3.778940  -2.654370  10.447550
242  2 0.0000  2.785270  -2.898330  10.870740
243  1 0.0000  4.869080  -1.996030  11.028010
244  2 0.0000  5.026880  -1.371950  11.928240
245  1 0.0000  3.016010  -8.014710   6.829670
246  2 0.0000  3.358890  -9.050050   6.727510
247  1 0.0000  4.824240  -2.018390   6.317500
248  2 0.0000  4.536420  -1.272450   7.095810
249  1 0.0000  4.641710  -3.842020   5.114460
250  2 0.0000  4.222930  -4.826600   4.769980
251  1 0.0000  0.256780  -3.717000   9.137340
252  2 0.0000  0.603840  -4.118040  10.106440
253  1 0.0000 -2.560130  -1.422290   4.012680
254  2 0.0000 -2.339030  -0.899300   4.910300
255  1 0.0000  0.276610   1.220620   4.844180
256  2 0.0000 -0.499190   1.947660   5.155260
257  1 0.0000  1.598160   0.144120   3.469600
258  2 0.0000  1.905360  -0.348970   2.542650
259  1 0.0000  8.727510   0.619350 -12.117350
260  2 0.0000  9.352660   0.897510 -12.949060
261  1 0.0000  0.252820  -3.164420   6.968710
262  2 0.0000  0.629880  -2.762060   6.048340
263  3 0.0000  4.209030  -3.321090   9.277560
264  3 0.0000  5.986380  -2.310990  10.189390
265  3 0.0000  7.703340   1.349070 -11.554550
266  3 0.0000  1.776770  -7.545710   6.340130
267  3 0.0000  4.039740  -3.182200   6.156290
268  3 0.0000  1.048320  -3.418890   8.061820
269  3 0.0000 -2.203890  -1.036590   2.755600
270  3 0.0000  0.382220   0.813750   3.571470
271  4 0.0000  3.027820  -3.896990   7.742090
272  4 0.0000 -1.401240   0.770870   2.545720

