Generated by pymatgen.io.lammps.data.LammpsData

272  atoms

  4  atom types

0.000000 15.423100  xlo xhi
0.000000 15.404200  ylo yhi
0.000000 18.437900  zlo zhi

Masses

1  12.01070
2   1.00794
3  14.00670
4  65.40900

Atoms

1    1 0.0000  5.659480  3.388600  6.476970
2    2 0.0000  5.053380  4.220480  6.013480
3    1 0.0000  6.053600  1.565340  7.526140
4    2 0.0000  5.844740  0.613500  8.113420
5    1 0.0000  7.316260  2.068050  7.105350
6    2 0.0000 -7.080430  1.664310  7.036010
7    1 0.0000  3.100370  0.358110  5.330810
8    2 0.0000  4.047970  0.819980  4.886400
9    1 0.0000  2.291870  5.215270  7.192910
10   2 0.0000  2.807740  5.527340  8.103870
11   1 0.0000  1.421440  3.786950  5.878630
12   2 0.0000  1.091630  2.833270  5.333390
13   1 0.0000 -6.144790  4.987380  8.495940
14   2 0.0000 -6.941780  4.385160  8.920460
15   1 0.0000 -6.244710  5.645300  2.981190
16   2 0.0000 -6.714010  6.627120  2.994010
17   1 0.0000  6.571360  7.405710  6.621200
18   2 0.0000  7.067510  7.481650  7.531000
19   1 0.0000  6.052510  6.911270  4.511570
20   2 0.0000  6.073450  6.243610  3.682890
21   1 0.0000  3.431280  0.888640 -8.086200
22   2 0.0000  4.360650  0.383880 -8.372690
23   1 0.0000 -4.932250  6.050820  7.014100
24   2 0.0000 -4.525870  6.234100  6.023810
25   3 0.0000  5.081310  2.488830  7.230750
26   3 0.0000  6.997180  3.322140  6.371690
27   3 0.0000  2.819070  1.873300 -8.873670
28   3 0.0000  2.553250  0.811520  6.522440
29   3 0.0000  2.116090  3.850570  7.020880
30   3 0.0000 -6.011810  5.190900  7.107890
31   3 0.0000 -6.484700  4.677990  3.955090
32   3 0.0000  6.869040  6.528170  5.590480
33   4 0.0000  3.197780  2.398160  7.758130
34   4 0.0000 -7.374080  4.908700  5.672480
35   1 0.0000  2.018990 -3.693130 -2.697250
36   2 0.0000  2.742070 -4.506360 -3.067350
37   1 0.0000  1.565830 -1.580220 -2.198830
38   2 0.0000  1.906910 -0.637230 -1.689440
39   1 0.0000  0.446610 -2.122570 -2.867170
40   2 0.0000 -0.655650 -1.856410 -3.028540
41   1 0.0000  4.312090 -0.215270 -3.604580
42   2 0.0000  3.307530 -0.612120 -3.765510
43   1 0.0000  5.015740 -5.617590 -2.408500
44   2 0.0000  4.212740 -5.974800 -1.773040
45   1 0.0000  6.343540 -4.047830 -3.320820
46   2 0.0000  6.787340 -3.084630 -3.521550
47   1 0.0000 -1.554830 -5.168120 -1.006700
48   2 0.0000 -0.700920 -4.760170 -0.491990
49   1 0.0000 -1.913810 -5.869890 -6.159150
50   2 0.0000 -2.093350 -6.966430 -5.925160
51   1 0.0000  1.290360 -7.496810 -2.530490
52   2 0.0000  0.701260 -7.370620 -1.614140
53   1 0.0000  2.036740 -7.077540 -4.568330
54   2 0.0000  1.823510 -6.752700 -5.598030
55   1 0.0000  4.167110 -1.193200  1.035390
56   2 0.0000  3.183730 -0.689070  0.790260
57   1 0.0000 -2.840190 -6.045350 -2.524540
58   2 0.0000 -3.088130 -6.312610 -3.554600
59   3 0.0000  2.510780 -2.597260 -2.036670
60   3 0.0000  0.716890 -3.462180 -3.123810
61   3 0.0000  4.869700 -2.057910  0.262940
62   3 0.0000  5.008080 -0.763540 -2.527540
63   3 0.0000  5.359500 -4.183920 -2.349650
64   3 0.0000 -1.676070 -5.367660 -2.310160
65   3 0.0000 -1.095440 -4.980380 -5.463980
66   3 0.0000  1.027550 -6.746000 -3.608900
67   4 0.0000  4.468860 -2.577070 -1.554570
68   4 0.0000 -0.238510 -5.126260 -3.717890
69   1 0.0000 -5.570060 -4.099370  2.918140
70   2 0.0000 -4.977610 -3.282470  3.266870
71   1 0.0000 -6.226050 -5.509010  1.407180
72   2 0.0000 -6.145660 -6.264060  0.626090
73   1 0.0000 -7.372400 -4.964280  1.993260
74   2 0.0000  6.957290 -5.091630  1.771860
75   1 0.0000 -2.655490 -7.179130  4.001050
76   2 0.0000 -3.344760 -6.588750  4.603360
77   1 0.0000 -1.751020 -2.572600  2.028270
78   2 0.0000 -2.389120 -2.092770  1.252200
79   1 0.0000 -1.337680 -4.023340  3.616940
80   2 0.0000 -1.085570 -4.979520  4.125500
81   1 0.0000  6.007160 -2.384120  0.977960
82   2 0.0000  6.679030 -3.127340  0.532760
83   1 0.0000  6.081250 -1.749860  5.990310
84   2 0.0000  6.165050 -0.729810  6.081020
85   1 0.0000 -6.295990  0.152600  2.606110
86   2 0.0000 -6.956390  0.380770  1.803600
87   1 0.0000 -5.402090 -0.736250  4.379180
88   2 0.0000 -5.403520 -1.452400  5.131510
89   1 0.0000 -3.535400 -6.103200 -1.274900
90   2 0.0000 -4.475000 -6.505240 -1.012540
91   1 0.0000  4.877340 -1.027160  2.215290
92   2 0.0000  4.563840 -0.677550  3.195090
93   3 0.0000 -5.114400 -4.978980  1.995960
94   3 0.0000 -6.924340 -3.912230  2.866740
95   3 0.0000 -2.601030 -5.677260 -0.277660
96   3 0.0000 -2.479470 -6.989160  2.679350
97   3 0.0000 -1.959640 -3.896900  2.385220
98   3 0.0000  6.032160 -1.808000  2.157900
99   3 0.0000  6.613190 -2.641250  5.079270
100  3 0.0000 -6.537550 -0.763730  3.540920
101  4 0.0000 -2.997430 -5.399420  1.655140
102  4 0.0000  7.493450 -2.161520  3.384630
103  1 0.0000 -2.351120  3.886610 -6.528360
104  2 0.0000 -2.954100  2.992750 -6.289760
105  1 0.0000 -1.641570  5.803060 -7.429240
106  2 0.0000 -1.622490  6.719420 -7.980010
107  1 0.0000 -0.507770  5.034720 -7.163600
108  2 0.0000  0.603480  5.300100 -7.221900
109  1 0.0000 -5.126060  7.324200 -4.865460
110  2 0.0000 -4.408290  6.762700 -4.287720
111  1 0.0000 -5.814850  2.518510 -7.084040
112  2 0.0000 -5.488190  2.150940 -8.056720
113  1 0.0000 -6.500490  3.940790 -5.587270
114  2 0.0000 -6.670200  4.857520 -5.045440
115  1 0.0000  1.815410  2.395720 -8.201520
116  2 0.0000  1.148920  3.118750 -8.647890
117  1 0.0000  1.212150  2.101620 -2.862510
118  2 0.0000  1.064070  0.986760 -2.908020
119  1 0.0000 -1.359990  0.053130 -6.465360
120  2 0.0000 -0.582900  0.006900 -7.240350
121  1 0.0000 -2.315850  0.844440 -4.634940
122  2 0.0000 -2.471900  1.552580 -3.758340
123  1 0.0000 -4.519020  6.460330  8.240530
124  2 0.0000 -3.687230  7.130980  8.550600
125  1 0.0000  2.671110  0.921260 -6.890410
126  2 0.0000  2.724420  0.135610 -6.112410
127  3 0.0000 -2.806260  5.058200 -7.025360
128  3 0.0000 -0.953140  3.858880 -6.548220
129  3 0.0000 -5.268450  5.766220  9.204310
130  3 0.0000 -5.475690  6.861030 -6.150810
131  3 0.0000 -5.709110  3.799980 -6.717600
132  3 0.0000  1.672600  1.794350 -6.981430
133  3 0.0000  1.044140  3.029770 -3.919950
134  3 0.0000 -1.171360  0.921220 -5.441490
135  4 0.0000 -4.701070  5.453320 -7.339180
136  4 0.0000  0.138960  2.376710 -5.687450
137  1 0.0000 -5.564330 -3.555060 -6.433680
138  2 0.0000 -4.801100 -4.308480 -6.113670
139  1 0.0000 -6.225270 -1.833620 -7.609270
140  2 0.0000 -6.137140 -0.894870 -8.155820
141  1 0.0000 -7.326430 -2.452920 -6.975150
142  2 0.0000  7.069700 -2.132170 -6.935790
143  1 0.0000 -3.115960 -0.210460 -5.170520
144  2 0.0000 -4.156030 -0.496780 -4.902790
145  1 0.0000 -2.601480 -5.074800 -7.102890
146  2 0.0000 -3.390020 -5.448610 -7.770510
147  1 0.0000 -1.255780 -3.759380 -6.032160
148  2 0.0000 -0.765100 -2.852890 -5.623070
149  1 0.0000  6.139930 -5.313070 -8.435690
150  2 0.0000  6.864270 -4.727740 -8.944540
151  1 0.0000  5.812980 -6.190250 -3.407900
152  2 0.0000  5.933880 -7.241330 -3.773770
153  1 0.0000 -6.436750 -7.729330 -6.587080
154  2 0.0000 -6.928280 -7.826810 -7.552520
155  1 0.0000 -5.960880 -7.048560 -4.573230
156  2 0.0000 -6.068040 -6.440010 -3.621680
157  1 0.0000 -3.401570 -1.182160  7.993230
158  2 0.0000 -4.349370 -0.660790  8.161840
159  1 0.0000  4.804300 -6.142470 -6.967420
160  2 0.0000  4.600560 -6.376920 -5.919810
161  3 0.0000 -5.109890 -2.525520 -7.201260
162  3 0.0000 -6.861380 -3.612640 -6.308470
163  3 0.0000 -2.845710 -2.043860  8.903550
164  3 0.0000 -2.495520 -0.694270 -6.301960
165  3 0.0000 -2.244540 -3.735090 -6.989270
166  3 0.0000  5.995950 -5.424250 -7.149370
167  3 0.0000  6.648000 -5.222150 -3.970870
168  3 0.0000 -6.786640 -6.757710 -5.680680
169  4 0.0000 -3.163350 -2.139650 -7.617720
170  4 0.0000  7.495070 -5.126640 -5.769840
171  1 0.0000 -1.964640  3.699300  2.427640
172  2 0.0000 -2.681220  4.436060  2.729700
173  1 0.0000 -1.117800  1.865810  1.644830
174  2 0.0000 -1.080120  0.952680  1.046040
175  1 0.0000 -0.067810  2.634020  2.126900
176  2 0.0000  1.045160  2.400950  2.265030
177  1 0.0000 -4.523630  0.192480  3.881930
178  2 0.0000 -3.476800  0.321840  4.182570
179  1 0.0000 -5.484130  5.049550  1.962700
180  2 0.0000 -5.051440  5.486470  1.075210
181  1 0.0000 -5.797320  3.609900  3.574070
182  2 0.0000 -5.640270  2.708670  4.171120
183  1 0.0000  1.741600  5.356550  1.081270
184  2 0.0000  0.749850  5.100400  0.684780
185  1 0.0000  1.520180  5.940320  6.298670
186  2 0.0000  1.382560  6.978640  6.260870
187  1 0.0000 -1.607350  7.440270  2.297710
188  2 0.0000 -1.243480  7.210200  1.291820
189  1 0.0000 -1.843440  7.186880  4.488210
190  2 0.0000 -1.601630  6.925030  5.560660
191  1 0.0000 -4.314330  1.298330 -1.385040
192  2 0.0000 -3.364520  0.851870 -1.235840
193  1 0.0000  3.288520  5.697270  2.587410
194  2 0.0000  3.782630  5.851830  3.560350
195  3 0.0000 -2.315780  2.542790  1.784910
196  3 0.0000 -0.663380  3.785300  2.616610
197  3 0.0000 -4.879180  2.034620 -0.385830
198  3 0.0000 -5.108840  0.772430  2.758640
199  3 0.0000 -5.202470  3.757800  2.314250
200  3 0.0000  1.980030  5.378460  2.417170
201  3 0.0000  0.928500  4.961640  5.449710
202  3 0.0000 -1.226980  6.640440  3.387830
203  4 0.0000 -4.241450  2.177440  1.467550
204  4 0.0000  0.288740  5.377910  3.552300
205  1 0.0000  5.416270  4.248900 -2.712690
206  2 0.0000  4.801910  3.278060 -2.954780
207  1 0.0000  6.165420  6.075410 -1.757140
208  2 0.0000  6.000590  7.078390 -1.286170
209  1 0.0000  7.244170  5.311970 -2.177380
210  2 0.0000 -7.020340  5.518040 -2.143270
211  1 0.0000  2.849130  7.361280 -3.980340
212  2 0.0000  3.719150  6.900190 -4.496090
213  1 0.0000  1.820450  2.811610 -1.831010
214  2 0.0000  2.306760  2.600800 -0.876000
215  1 0.0000  1.455720  4.188220 -3.451070
216  2 0.0000  1.393480  5.247360 -3.927060
217  1 0.0000 -6.071570  2.469750 -0.902660
218  2 0.0000 -6.820980  3.051920 -0.335870
219  1 0.0000 -6.652580  1.864030 -6.166510
220  2 0.0000 -6.911610  0.815690 -6.058570
221  1 0.0000  6.175050 -0.100800 -2.439440
222  2 0.0000  6.967620 -0.329280 -1.730690
223  1 0.0000  5.062600  0.862560 -4.018810
224  2 0.0000  4.951640  1.586060 -4.761760
225  1 0.0000  3.878300  5.849280  1.328210
226  2 0.0000  4.902100  6.113530  0.978480
227  1 0.0000 -5.139000  1.331130 -2.466120
228  2 0.0000 -4.899110  1.032460 -3.514450
229  3 0.0000  4.999980  5.362190 -2.092460
230  3 0.0000  6.761190  4.146610 -2.784220
231  3 0.0000  2.844390  5.713440  0.394870
232  3 0.0000  2.384090  7.146360 -2.665150
233  3 0.0000  1.995590  4.147010 -2.178150
234  3 0.0000 -6.257870  2.093690 -2.147520
235  3 0.0000 -7.067890  2.791700 -5.237630
236  3 0.0000  6.275150  0.852620 -3.329150
237  4 0.0000  2.998410  5.710620 -1.523060
238  4 0.0000 -7.851460  2.461560 -3.423910
239  1 0.0000  2.276740 -4.140140  6.384940
240  2 0.0000  2.961280 -3.452500  5.831360
241  1 0.0000  1.734870 -5.807070  7.742060
242  2 0.0000  1.922480 -6.778200  8.211940
243  1 0.0000  0.552270 -5.145420  7.358200
244  2 0.0000 -0.467320 -5.447190  7.616640
245  1 0.0000  5.308210 -7.420600  4.939850
246  2 0.0000  4.557190 -6.881200  4.390620
247  1 0.0000  5.488530 -2.551510  6.964560
248  2 0.0000  4.970750 -2.316150  7.894050
249  1 0.0000  6.249370 -3.900730  5.465160
250  2 0.0000  6.292770 -4.701800  4.719200
251  1 0.0000 -1.691640 -2.434350  8.390340
252  2 0.0000 -0.945950 -3.057600  8.924140
253  1 0.0000 -0.977030 -1.958860  3.010550
254  2 0.0000 -0.510240 -0.976200  3.100910
255  1 0.0000  1.478640 -0.005980  6.778020
256  2 0.0000  0.848760  0.092840  7.621630
257  1 0.0000  2.326130 -0.706030  4.916190
258  2 0.0000  2.338690 -1.221030  3.920960
259  1 0.0000  4.234460 -6.389200 -8.262080
260  2 0.0000  3.361210 -7.014460 -8.397250
261  1 0.0000 -2.633200 -1.150300  6.863890
262  2 0.0000 -2.766180 -0.574420  5.927360
263  3 0.0000  2.819530 -5.186510  7.071560
264  3 0.0000  0.947680 -3.991610  6.650630
265  3 0.0000  5.084400 -5.952260 -9.169370
266  3 0.0000  5.658730 -7.053600  6.248910
267  3 0.0000  5.519860 -3.894380  6.609140
268  3 0.0000 -1.485500 -1.902420  7.133810
269  3 0.0000 -0.789310 -2.887870  4.042970
270  3 0.0000  1.268980 -0.916550  5.814820
271  4 0.0000  4.715420 -5.545620  7.380020
272  4 0.0000  0.008520 -2.505860  5.814650

