Generated by pymatgen.io.lammps.data.LammpsData

272  atoms

  4  atom types

0.000000 15.423100  xlo xhi
0.000000 15.404200  ylo yhi
0.000000 18.437900  zlo zhi

Masses

1  12.01070
2   1.00794
3  14.00670
4  65.40900

Atoms

1    1 0.0000  5.874250   3.039070   6.820900
2    2 0.0000  5.826800   2.367210   5.978210
3    1 0.0000  5.396900   4.208090   8.577390
4    2 0.0000  4.875760   4.318410   9.559930
5    1 0.0000  6.172310   4.997080   7.726760
6    2 0.0000 -8.870990   6.030740   7.888320
7    1 0.0000  2.661270   1.133090   6.116400
8    2 0.0000  3.576650   1.359030   5.597260
9    1 0.0000  1.605650   5.202380   7.945600
10   2 0.0000  1.698130   5.140770   9.014920
11   1 0.0000  1.643000   5.809870   5.856830
12   2 0.0000  1.819970   6.293340   4.907810
13   1 0.0000 -2.710350   2.028340   7.834370
14   2 0.0000 -1.827800   2.480310   8.276220
15   1 0.0000 -7.052420   4.076390   1.084850
16   2 0.0000 -7.185740   4.000930  -0.006900
17   1 0.0000  5.069660   6.341890   5.041460
18   2 0.0000  4.549810   5.381840   5.075740
19   1 0.0000  6.453930   7.997940   4.486650
20   2 0.0000  7.374110   8.516980   4.117920
21   1 0.0000  2.754600   1.458910  -5.620640
22   2 0.0000  2.826850   1.318030  -4.569000
23   1 0.0000 -4.006290   0.668680   6.845770
24   2 0.0000 -4.483500  -0.097360   6.210090
25   3 0.0000  5.217270   2.935410   7.973570
26   3 0.0000  6.457020   4.275740   6.627840
27   3 0.0000  1.547660   1.577570  -6.246680
28   3 0.0000  2.569140   0.896050   7.518360
29   3 0.0000  2.164340   6.124670   7.110610
30   3 0.0000 -2.688830   1.026220   6.913920
31   3 0.0000 -6.045250   3.296920   1.687050
32   3 0.0000  6.306240   6.642320   4.560820
33   4 0.0000  4.022380   1.265270   8.799330
34   4 0.0000 -7.839430   5.028900   5.094210
35   1 0.0000  2.046550  -2.732400  -1.126200
36   2 0.0000  2.612630  -3.575050  -0.800700
37   1 0.0000  1.545160  -0.876310  -2.177800
38   2 0.0000  1.597880   0.159940  -2.559970
39   1 0.0000  0.495340  -1.694560  -2.214640
40   2 0.0000 -0.567640  -1.429160  -2.518900
41   1 0.0000  7.185820  -0.691630  -3.139480
42   2 0.0000  7.529800  -1.732460  -2.982020
43   1 0.0000  3.542670  -3.314190  -5.953310
44   2 0.0000  2.904790  -3.634940  -6.767530
45   1 0.0000  5.366840  -3.003340  -4.721540
46   2 0.0000  6.352470  -2.803870  -4.291800
47   1 0.0000 -1.661000  -4.847380   0.561820
48   2 0.0000 -1.195720  -3.937700   0.944440
49   1 0.0000 -1.493360  -5.803530  -4.417530
50   2 0.0000 -1.350190  -6.868370  -4.056340
51   1 0.0000  1.150540  -7.358990  -1.718620
52   2 0.0000  0.308390  -7.758550  -1.196290
53   1 0.0000  2.568400  -5.969110  -2.630780
54   2 0.0000  2.883740  -4.938120  -2.971450
55   1 0.0000  5.618580  -4.063650  -0.628130
56   2 0.0000  5.071080  -4.690750  -1.299840
57   1 0.0000 -2.083610  -6.663620  -0.587510
58   2 0.0000 -1.961770  -7.381430  -1.369180
59   3 0.0000  2.579420  -1.529110  -1.498150
60   3 0.0000  0.780510  -2.884370  -1.536540
61   3 0.0000  5.536280  -2.639420  -0.803110
62   3 0.0000  5.879280  -0.284080  -2.849000
63   3 0.0000  4.919420  -3.382420  -5.956410
64   3 0.0000 -1.342210  -5.432670  -0.621790
65   3 0.0000 -0.975630  -4.634700  -3.790510
66   3 0.0000  1.334730  -6.081240  -2.002050
67   4 0.0000  4.491170  -1.607290  -2.252160
68   4 0.0000 -0.038000  -4.686770  -1.994590
69   1 0.0000 -5.544170  -4.683070   3.068730
70   2 0.0000 -5.372970  -4.776220   1.959160
71   1 0.0000 -5.068430  -4.614050   5.213810
72   2 0.0000 -4.503300  -4.772540   6.089870
73   1 0.0000 -6.366140  -4.013880   4.991850
74   2 0.0000  8.315630  -3.527470   5.646300
75   1 0.0000 -2.415130  -7.398140   5.327890
76   2 0.0000 -3.183350  -6.888560   5.931220
77   1 0.0000 -2.636240  -2.260180   3.009800
78   2 0.0000 -3.053030  -2.184400   1.976560
79   1 0.0000 -1.697410  -2.980740   4.847540
80   2 0.0000 -1.304410  -3.592410   5.642830
81   1 0.0000  6.139550  -2.072550   0.270140
82   2 0.0000  6.231800  -0.958630   0.338720
83   1 0.0000  7.939120  -0.784880   5.070510
84   2 0.0000  8.752650  -1.359740   5.467380
85   1 0.0000 -5.923630  -0.198640   1.935240
86   2 0.0000 -6.321050   0.318870   2.831080
87   1 0.0000 -5.446650  -1.910700   0.610920
88   2 0.0000 -5.398670  -2.948860   0.279470
89   1 0.0000 -2.682970  -6.801180   0.625070
90   2 0.0000 -3.261280  -7.660890   1.054390
91   1 0.0000  6.430980  -4.259950   0.466400
92   2 0.0000  6.721970  -5.166090   0.981640
93   3 0.0000 -4.584310  -4.951140   3.958680
94   3 0.0000 -6.657570  -4.095530   3.626940
95   3 0.0000 -2.516640  -5.586870   1.336740
96   3 0.0000 -1.820000  -6.797970   4.227390
97   3 0.0000 -2.194540  -3.397030   3.699810
98   3 0.0000  6.678600  -3.019190   1.084320
99   3 0.0000  7.103720  -1.345190   4.106550
100  3 0.0000 -6.143000  -1.522680   1.768900
101  4 0.0000 -2.721680  -5.278520   3.329300
102  4 0.0000  7.673690  -2.605750   2.731700
103  1 0.0000 -2.138930   3.172620  -7.359690
104  2 0.0000 -2.808950   2.332520  -7.239610
105  1 0.0000 -1.531940   5.134090  -8.036200
106  2 0.0000 -1.658560   6.085430  -8.603950
107  1 0.0000 -0.558230   4.665270  -7.163530
108  2 0.0000  0.446550   5.059930  -6.992530
109  1 0.0000 -4.914250   6.731790 -10.705210
110  2 0.0000 -4.384110   7.488260 -10.021590
111  1 0.0000 -7.154400   4.015580  -8.135730
112  2 0.0000 -7.418110   3.997080  -9.181480
113  1 0.0000 -5.920270   3.701260  -6.398320
114  2 0.0000 -4.982670   3.764960  -5.792160
115  1 0.0000  1.840600   1.645830  -7.577380
116  2 0.0000  1.087570   1.726940  -8.370440
117  1 0.0000 -0.199720   2.506390  -2.196850
118  2 0.0000 -0.978910   1.735680  -1.959440
119  1 0.0000 -1.747590  -0.412940  -6.154970
120  2 0.0000 -1.139920  -0.507080  -7.056530
121  1 0.0000 -2.624250   0.373990  -4.349280
122  2 0.0000 -2.624020   0.865210  -3.344720
123  1 0.0000 -4.738430   1.460200   7.718000
124  2 0.0000 -5.747050   1.507070   8.048650
125  1 0.0000  3.734370   1.393850  -6.567330
126  2 0.0000  4.793790   1.292700  -6.442750
127  3 0.0000 -2.515560   4.182540  -8.159270
128  3 0.0000 -0.897920   3.339840  -6.730800
129  3 0.0000 -3.933790   2.360120   8.372720
130  3 0.0000 -4.685530   5.360510 -10.637150
131  3 0.0000 -5.852340   3.931750  -7.727400
132  3 0.0000  3.188800   1.571160  -7.811740
133  3 0.0000  0.183410   2.691660  -3.490130
134  3 0.0000 -1.593250   0.530870  -5.271520
135  4 0.0000 -4.199970   4.202700  -9.083270
136  4 0.0000 -0.201240   2.036470  -5.236050
137  1 0.0000 -6.369080  -3.248630  -7.441300
138  2 0.0000 -6.366950  -2.551370  -8.271730
139  1 0.0000 -5.696620  -4.348820  -5.684780
140  2 0.0000 -4.969480  -4.742420  -5.045170
141  1 0.0000 -7.056490  -4.609040  -5.927280
142  2 0.0000  7.586930  -5.185280  -5.287310
143  1 0.0000 -3.424090  -0.674120  -4.766970
144  2 0.0000 -4.387790  -1.050020  -4.440060
145  1 0.0000 -2.311760  -5.469740  -5.502690
146  2 0.0000 -2.922380  -6.146900  -6.154380
147  1 0.0000 -1.469690  -3.672750  -4.622770
148  2 0.0000 -1.274550  -2.608780  -4.343760
149  1 0.0000  5.027100  -1.348320  -8.598860
150  2 0.0000  4.271610  -1.302890  -7.782900
151  1 0.0000  3.147150  -2.910670  -4.652790
152  2 0.0000  2.142530  -2.796820  -4.146450
153  1 0.0000 -5.627830 -10.615760 -11.514130
154  2 0.0000 -5.578730 -11.673880 -11.682640
155  1 0.0000 -5.976660  -8.477870 -11.604400
156  2 0.0000 -6.352970  -7.565880 -12.066330
157  1 0.0000 -0.972920  -3.207040   9.764160
158  2 0.0000 -0.544700  -3.840610  10.508560
159  1 0.0000  6.672830  -2.015300  -9.876920
160  2 0.0000  7.527790  -2.632820 -10.153790
161  3 0.0000 -5.284790  -3.461400  -6.662020
162  3 0.0000 -7.467010  -3.872960  -6.994220
163  3 0.0000 -2.347990  -2.865120   9.859350
164  3 0.0000 -2.918070  -1.110250  -5.981800
165  3 0.0000 -2.279130  -4.090790  -5.630980
166  3 0.0000  5.928350  -2.372500  -8.752950
167  3 0.0000  4.319350  -2.733960  -3.874430
168  3 0.0000 -6.370710  -9.683870 -12.126750
169  4 0.0000 -3.409930  -2.842810  -6.833980
170  4 0.0000  6.089240  -3.883180  -7.492430
171  1 0.0000 -2.358570   3.562870   2.387700
172  2 0.0000 -3.057430   4.416430   2.593520
173  1 0.0000 -1.620930   1.741450   1.478890
174  2 0.0000 -1.493100   0.824120   0.890750
175  1 0.0000 -0.652140   2.176450   2.390240
176  2 0.0000  0.323160   1.788080   2.706340
177  1 0.0000 -4.705080  -0.806580   0.142480
178  2 0.0000 -4.032740  -0.682060  -0.709280
179  1 0.0000 -7.787290   4.645360   2.133090
180  2 0.0000 -8.693480   5.190510   2.068870
181  1 0.0000 -6.247670   3.330060   3.000320
182  2 0.0000 -5.754730   2.752270   3.792070
183  1 0.0000  1.225460   5.431450   1.601210
184  2 0.0000  0.385290   6.119450   1.438850
185  1 0.0000  0.827490   4.305080   7.257020
186  2 0.0000  0.385970   3.353600   7.535760
187  1 0.0000 -0.964790   7.601580   3.773910
188  2 0.0000 -0.293780   7.677380   2.909630
189  1 0.0000 -1.960120   6.679970   5.455110
190  2 0.0000 -2.362730   5.825140   6.057110
191  1 0.0000 -4.788340   3.947120  -3.065680
192  2 0.0000 -4.584200   4.624080  -3.909770
193  1 0.0000  3.172860   4.331130   1.473620
194  2 0.0000  4.095980   3.918640   1.034330
195  3 0.0000 -2.704050   2.565110   1.471320
196  3 0.0000 -1.170630   3.334770   3.035670
197  3 0.0000 -6.076920   3.355980  -2.898110
198  3 0.0000 -5.025940   0.269240   1.021510
199  3 0.0000 -7.222780   4.235190   3.351020
200  3 0.0000  2.261290   5.169870   0.791860
201  3 0.0000  0.884160   4.701130   5.890650
202  3 0.0000 -1.051340   6.464510   4.462790
203  4 0.0000 -4.561300   2.178570   0.685640
204  4 0.0000 -0.123500   4.689670   4.068100
205  1 0.0000  4.875790   4.407780  -2.798140
206  2 0.0000  4.199120   3.648670  -3.274130
207  1 0.0000  5.659860   5.529120  -1.126130
208  2 0.0000  5.741180   6.064360  -0.198940
209  1 0.0000  6.726620   5.177360  -1.903410
210  2 0.0000 -7.583470   5.331800  -1.725510
211  1 0.0000  3.132210   8.156790  -2.698590
212  2 0.0000  4.088990   7.789270  -3.081620
213  1 0.0000  0.488440   3.353050  -1.391410
214  2 0.0000  0.331880   3.486750  -0.324920
215  1 0.0000  1.148020   3.683590  -3.424130
216  2 0.0000  1.737790   4.239220  -4.177490
217  1 0.0000 -5.978580   2.659000  -1.738830
218  2 0.0000 -6.753270   2.088320  -1.288650
219  1 0.0000 -7.972320   3.944060  -7.010230
220  2 0.0000 -9.081170   4.057580  -6.994090
221  1 0.0000  5.851060   1.022360  -3.182290
222  2 0.0000  5.000790   1.644910  -3.004350
223  1 0.0000  7.916420   0.410710  -3.630910
224  2 0.0000  9.002300   0.540790  -3.849220
225  1 0.0000  2.604070   4.094250   2.723700
226  2 0.0000  2.855050   3.575050   3.645120
227  1 0.0000 -4.044400   3.626210  -1.978070
228  2 0.0000 -2.986200   3.711900  -1.798610
229  3 0.0000  4.464260   5.088410  -1.736410
230  3 0.0000  6.247170   4.392550  -2.964630
231  3 0.0000  1.366650   4.859070   2.828750
232  3 0.0000  2.249090   7.294080  -2.020800
233  3 0.0000  1.351270   4.148090  -2.129800
234  3 0.0000 -4.773510   2.801640  -1.175310
235  3 0.0000 -7.185640   3.733270  -5.923000
236  3 0.0000  7.056380   1.481960  -3.634810
237  4 0.0000  2.542210   5.440050  -1.180180
238  4 0.0000 -7.790660   3.422750  -4.032440
239  1 0.0000  5.223920  -6.182720   8.912390
240  2 0.0000  5.900440  -5.719290   8.135220
241  1 0.0000  4.280920  -6.428880  10.861730
242  2 0.0000  4.197730  -6.318880  11.962480
243  1 0.0000  3.688590  -7.338060   9.968750
244  2 0.0000  3.014430  -8.203690  10.119630
245  1 0.0000  5.252970  -6.855570   5.032350
246  2 0.0000  5.009730  -5.762940   5.157210
247  1 0.0000  7.518750   0.539410   5.296880
248  2 0.0000  8.023650   1.345690   5.894960
249  1 0.0000  6.284810  -0.287910   3.726370
250  2 0.0000  5.546060  -0.459680   2.930550
251  1 0.0000 -2.529570  -1.999970   8.817020
252  2 0.0000 -3.483230  -1.539330   8.564960
253  1 0.0000 -2.417800  -1.157480   3.844620
254  2 0.0000 -2.758190  -0.095740   3.663530
255  1 0.0000  1.422700   0.246000   7.648970
256  2 0.0000  1.002280  -0.054700   8.609100
257  1 0.0000  1.501170   0.746620   5.510470
258  2 0.0000  1.209680   0.820260   4.375420
259  1 0.0000  6.253110  -0.754530 -10.273640
260  2 0.0000  6.618190  -0.122360 -11.088580
261  1 0.0000 -0.419820  -2.688030   8.623470
262  2 0.0000  0.582230  -2.813640   8.091180
263  3 0.0000  5.278590  -5.731810  10.177630
264  3 0.0000  4.354790  -7.134470   8.734750
265  3 0.0000  5.152990  -0.377530  -9.505770
266  3 0.0000  4.413930  -7.895930   5.343300
267  3 0.0000  6.527700   0.867620   4.369300
268  3 0.0000 -1.428710  -1.905320   8.056090
269  3 0.0000 -1.747700  -1.587610   4.968650
270  3 0.0000  0.681510   0.192390   6.479410
271  4 0.0000  3.684080  -8.081250   7.136880
272  4 0.0000 -1.267940  -0.502250   6.610920

