Generated by pymatgen.io.lammps.data.LammpsData

272  atoms

  4  atom types

0.000000 15.423100  xlo xhi
0.000000 15.404200  ylo yhi
0.000000 18.437900  zlo zhi

Masses

1  12.01070
2   1.00794
3  14.00670
4  65.40900

Atoms

1    1 0.0000   3.485820  -1.332980   9.128950
2    2 0.0000   4.370680  -1.084510   8.527750
3    1 0.0000   1.769060  -2.212580   9.972090
4    2 0.0000   0.862390  -2.832290   9.967620
5    1 0.0000   2.080400  -1.092080  10.801120
6    2 0.0000 -13.805590  -0.574900  11.678970
7    1 0.0000   1.757160  -3.178750   0.413480
8    2 0.0000   2.262490  -3.691520  -0.369140
9    1 0.0000   1.032350  -0.421560   6.310310
10   2 0.0000   1.379490  -1.201180   7.003700
11   1 0.0000   0.128870   0.488190   4.547210
12   2 0.0000  -0.222380   0.637060   3.517710
13   1 0.0000  -6.879850  -0.577000  15.783690
14   2 0.0000  -7.639920  -1.192250  15.286520
15   1 0.0000  -5.809460   3.769230  -0.891140
16   2 0.0000  -5.166500   2.905160  -0.917610
17   1 0.0000   2.549080  11.376630   5.291160
18   2 0.0000   3.168730  11.609500   4.411050
19   1 0.0000   0.767040  11.068780   6.467260
20   2 0.0000  -0.270520  11.270770   6.754780
21   1 0.0000   0.916760   3.316120  -6.845070
22   2 0.0000  -0.134370   3.703480  -6.998600
23   1 0.0000  -5.655230   0.273240  17.346620
24   2 0.0000  -5.266990   0.521190  18.370160
25   3 0.0000   2.712020  -2.394470   8.939520
26   3 0.0000   3.215330  -0.525660  10.242470
27   3 0.0000   1.534810   3.684610  -5.650930
28   3 0.0000   1.326910  -1.884970   0.191440
29   3 0.0000   0.391470  -0.723700   5.131850
30   3 0.0000  -6.956270  -0.242050  17.161900
31   3 0.0000  -5.774100   4.788640  -0.063310
32   3 0.0000   1.176700  11.542630   5.256950
33   4 0.0000   4.370250   1.027100  10.979160
34   4 0.0000  -9.896290   5.957240   3.902210
35   1 0.0000  -0.228590  -3.379250  -2.768940
36   2 0.0000  -0.581020  -3.719630  -1.816770
37   1 0.0000   1.124900  -2.547570  -4.316900
38   2 0.0000   1.983900  -2.093290  -4.741620
39   1 0.0000   0.198460  -3.470800  -4.945770
40   2 0.0000   0.116080  -3.820650  -5.989730
41   1 0.0000   7.319330  -2.992500 -11.172300
42   2 0.0000   7.534200  -3.813260 -10.512740
43   1 0.0000   5.370400   0.331830  -2.298980
44   2 0.0000   6.211860   0.924450  -2.578190
45   1 0.0000   4.349060  -1.094800  -0.987100
46   2 0.0000   4.065840  -1.731220  -0.156800
47   1 0.0000  -3.546020  -5.220330  -1.166270
48   2 0.0000  -4.354390  -4.484300  -1.406130
49   1 0.0000  -4.688060  -5.021230  -5.633630
50   2 0.0000  -4.761260  -6.078810  -5.802990
51   1 0.0000  -0.187740  -8.089980  -3.930930
52   2 0.0000   0.800790  -7.688900  -3.930720
53   1 0.0000  -2.362660  -8.225040  -4.198190
54   2 0.0000  -3.427980  -7.915770  -4.184550
55   1 0.0000   7.091930  -3.093920   1.723820
56   2 0.0000   6.102780  -2.753440   2.215750
57   1 0.0000  -1.729920  -6.436290  -0.972130
58   2 0.0000  -0.953540  -7.115770  -1.178390
59   3 0.0000   0.785440  -2.517260  -2.985990
60   3 0.0000  -0.574820  -4.027970  -3.963940
61   3 0.0000   7.707540  -2.278590   0.778110
62   3 0.0000   6.069100  -2.870950 -11.748270
63   3 0.0000   5.516570  -0.481600  -1.100100
64   3 0.0000  -2.461300  -5.648630  -1.921170
65   3 0.0000  -3.596540  -4.598140  -4.842760
66   3 0.0000  -1.297420  -7.314480  -4.139000
67   4 0.0000   1.403510  -1.047570  -1.704360
68   4 0.0000  -2.031960  -5.355470  -3.830640
69   1 0.0000  -5.074920  -7.640330   2.058070
70   2 0.0000  -5.499910  -7.646080   1.093900
71   1 0.0000  -4.227950  -8.391530   3.898510
72   2 0.0000  -3.942810  -9.066280   4.755090
73   1 0.0000  -4.422490  -7.030940   4.013790
74   2 0.0000  11.269390  -6.301800   4.733210
75   1 0.0000   1.409620  -9.585540   3.394130
76   2 0.0000   0.493910  -9.180770   2.939280
77   1 0.0000  -3.961960  -3.043710   4.231550
78   2 0.0000  -4.927520  -2.894900   4.717620
79   1 0.0000  -2.227570  -3.738340   3.043530
80   2 0.0000  -1.704500  -4.086280   2.158100
81   1 0.0000   8.876000  -2.833060   0.482900
82   2 0.0000   9.671720  -2.314020  -0.139580
83   1 0.0000   5.785220  -4.419670   9.811980
84   2 0.0000   5.682520  -3.342190   9.949190
85   1 0.0000  -7.714230   4.231050   2.738780
86   2 0.0000  -8.115610   4.385970   1.752590
87   1 0.0000  -7.677460   4.388380   4.939110
88   2 0.0000  -8.063670   4.674830   5.942720
89   1 0.0000  -2.295700  -6.293750   0.321250
90   2 0.0000  -2.015380  -6.787240   1.271790
91   1 0.0000   7.933150  -4.161170   1.987450
92   2 0.0000   7.709400  -4.913680   2.692840
93   3 0.0000  -4.669930  -8.764280   2.651090
94   3 0.0000  -4.893160  -6.545070   2.825430
95   3 0.0000  -3.445660  -5.537830   0.148500
96   3 0.0000   1.444040 -10.824930   4.178930
97   3 0.0000  -3.595870  -3.789580   3.117520
98   3 0.0000   9.103770  -3.948380   1.263590
99   3 0.0000   5.477490  -5.205800   8.699860
100  3 0.0000  -8.497840   4.560700   3.838140
101  4 0.0000   0.005860 -12.034880   4.768560
102  4 0.0000  10.793710  -4.870750   1.786110
103  1 0.0000  -6.056650   1.858210 -11.297260
104  2 0.0000  -6.921550   2.446320 -10.980730
105  1 0.0000  -5.230210   0.391340 -12.719010
106  2 0.0000  -5.139160  -0.322240 -13.530820
107  1 0.0000  -4.257120   0.754630 -11.790930
108  2 0.0000  -3.206560   0.407340 -11.684430
109  1 0.0000  -8.164920   7.932490 -13.311490
110  2 0.0000  -7.214310   7.461040 -13.456140
111  1 0.0000  -9.637510  -1.337580  -6.280860
112  2 0.0000 -10.576500  -1.870550  -6.434260
113  1 0.0000  -8.150180   0.323920  -6.345310
114  2 0.0000  -7.646260   1.265300  -6.516360
115  1 0.0000   2.759300   3.081380  -5.703580
116  2 0.0000   3.550990   3.212430  -4.921940
117  1 0.0000   6.455490   8.356270   0.461990
118  2 0.0000   6.958770   9.107710  -0.204030
119  1 0.0000   0.424830   1.390500  -3.222650
120  2 0.0000   0.535160   1.114330  -4.301650
121  1 0.0000  -0.162130   2.874410  -1.636490
122  2 0.0000  -0.301550   3.842100  -1.191930
123  1 0.0000  -4.856730   0.117650  16.233630
124  2 0.0000  -3.945440   0.633560  15.925240
125  1 0.0000   1.733110   2.440310  -7.521010
126  2 0.0000   1.544110   1.971470  -8.513880
127  3 0.0000  -6.365940   1.142860 -12.398360
128  3 0.0000  -4.801920   1.627190 -10.882520
129  3 0.0000  -5.683220  -0.419930  15.189520
130  3 0.0000  -9.377830   7.264420 -13.200670
131  3 0.0000  -9.480740   0.043580  -6.574820
132  3 0.0000   2.981950   2.354870  -6.825720
133  3 0.0000   5.779130   7.369170  -0.233960
134  3 0.0000   0.055030   2.694340  -3.006120
135  4 0.0000  -4.043140   3.024120  -9.516760
136  4 0.0000   0.744260   4.426120  -3.937570
137  1 0.0000  -1.980850   3.392790 -11.617570
138  2 0.0000  -2.442970   2.763170 -12.328120
139  1 0.0000  -1.624980   5.005170 -10.209220
140  2 0.0000  -1.720350   5.504740  -9.238560
141  1 0.0000  -0.654470   5.122760 -11.222520
142  2 0.0000  15.619420   5.821970 -11.220940
143  1 0.0000   0.185940   1.634650  -1.067880
144  2 0.0000   0.030220   1.283460   0.003130
145  1 0.0000  -5.444170  -3.891650  -5.955800
146  2 0.0000  -6.321280  -3.823460  -6.619580
147  1 0.0000  -3.780310  -3.271350  -4.675350
148  2 0.0000  -3.129700  -2.544550  -4.150040
149  1 0.0000   5.886220   1.195180  -9.993690
150  2 0.0000   6.462420   0.311570  -9.693430
151  1 0.0000   4.116130   0.133380  -2.776170
152  2 0.0000   3.536210   0.580540  -3.608780
153  1 0.0000 -10.301940  -7.172350 -12.982470
154  2 0.0000 -11.404030  -7.310470 -12.886600
155  1 0.0000  -8.421990  -6.109060 -13.121570
156  2 0.0000  -7.740080  -5.285110 -13.081640
157  1 0.0000  -3.998600   1.827490  12.929190
158  2 0.0000  -3.913640   1.854090  13.973130
159  1 0.0000   4.698990   3.026510  -9.954300
160  2 0.0000   4.128000   3.896160  -9.695060
161  3 0.0000  -2.454620   3.883690 -10.467880
162  3 0.0000  -0.915910   4.067560 -12.074190
163  3 0.0000  -4.510760   0.653210  12.312860
164  3 0.0000   0.580300   0.725080  -2.053870
165  3 0.0000  -4.850260  -2.793860  -5.345700
166  3 0.0000   5.078770   1.971620  -9.124190
167  3 0.0000   3.506090  -0.809100  -2.023340
168  3 0.0000  -9.826560  -5.926260 -13.000870
169  4 0.0000  -5.560710  -0.881290  -5.245090
170  4 0.0000   7.129860   0.877910 -12.695430
171  1 0.0000  -2.704460   3.661120   3.312570
172  2 0.0000  -3.225290   3.607520   4.279790
173  1 0.0000  -2.309470   3.788720   1.199680
174  2 0.0000  -2.537790   3.968740   0.171450
175  1 0.0000  -1.047710   3.805890   1.840970
176  2 0.0000   0.031690   3.995170   1.564000
177  1 0.0000  -6.403750   4.029750   4.479320
178  2 0.0000  -5.372060   3.978570   4.952270
179  1 0.0000  -6.936770   3.957570  -1.793080
180  2 0.0000  -7.186930   3.363570  -2.652590
181  1 0.0000  -6.828480   5.617630  -0.351090
182  2 0.0000  -7.011620   6.419280   0.336770
183  1 0.0000   6.343590   6.861250  -4.941030
184  2 0.0000   5.331140   6.681030  -5.157720
185  1 0.0000   1.220160   0.953650   6.325410
186  2 0.0000   1.690920   1.557500   7.151670
187  1 0.0000   2.792640   4.298290   4.219270
188  2 0.0000   3.176410   3.483440   4.878690
189  1 0.0000   2.735210   6.253960   3.234020
190  2 0.0000   3.099630   7.157510   2.670750
191  1 0.0000 -10.329970   0.779730   2.087360
192  2 0.0000 -11.168260   0.459900   1.453780
193  1 0.0000   8.267430   7.100780  -3.868740
194  2 0.0000   9.062810   7.382330  -3.172680
195  3 0.0000  -3.318310   3.699010   2.115210
196  3 0.0000  -1.343020   3.759420   3.232840
197  3 0.0000  -8.947690   0.525060   1.723140
198  3 0.0000  -6.454450   3.977640   3.058650
199  3 0.0000  -7.589870   5.132940  -1.364040
200  3 0.0000   6.876220   7.056690  -3.726560
201  3 0.0000   0.597330   1.521370   5.234000
202  3 0.0000   3.554210   5.325570   3.777570
203  4 0.0000  -5.008250   4.732440   1.857330
204  4 0.0000   4.902730  10.858210   6.879950
205  1 0.0000   3.506790   5.679510  -3.094410
206  2 0.0000   3.480440   6.550040  -3.804510
207  1 0.0000   4.364870   4.078540  -1.927340
208  2 0.0000   4.965650   3.528750  -1.192330
209  1 0.0000   3.051660   3.643930  -2.286320
210  2 0.0000 -13.002150   2.760420  -2.115370
211  1 0.0000  -1.910600   5.846810  -4.082990
212  2 0.0000  -2.429850   4.902120  -3.912310
213  1 0.0000   6.344010   8.135950   1.814210
214  2 0.0000   6.774740   8.437320   2.752770
215  1 0.0000   5.259850   6.499840   0.717930
216  2 0.0000   4.672990   5.643540   0.411740
217  1 0.0000  -8.251590   0.879490   2.809150
218  2 0.0000  -7.161850   0.776970   2.857040
219  1 0.0000  -8.346110  -1.855270  -6.016570
220  2 0.0000  -7.934260  -2.865250  -5.924630
221  1 0.0000   6.067160  -1.675100 -12.479770
222  2 0.0000   5.212150  -1.384020 -13.085800
223  1 0.0000   8.021150  -1.870690 -11.586220
224  2 0.0000   9.005910  -1.536150 -11.307740
225  1 0.0000   8.563110   6.852990  -5.261570
226  2 0.0000   9.496800   6.574000  -5.760190
227  1 0.0000 -10.326980   1.165820   3.450850
228  2 0.0000 -11.159440   1.359090   4.162010
229  3 0.0000   4.597380   5.387120  -2.397690
230  3 0.0000   2.543570   4.667540  -3.043560
231  3 0.0000   7.287490   6.659790  -5.933620
232  3 0.0000  -0.477880   5.936930  -3.935040
233  3 0.0000   5.604710   6.935260   1.952770
234  3 0.0000  -9.037500   1.272730   3.873510
235  3 0.0000  -7.452300  -0.787320  -6.026930
236  3 0.0000   7.263260  -1.103740 -12.443070
237  4 0.0000   6.132290   6.442340  -1.915220
238  4 0.0000  -8.362940  -0.521700   0.078430
239  1 0.0000   8.828840 -10.516680   9.709160
240  2 0.0000   8.392110 -11.223930  10.394850
241  1 0.0000   9.140820  -8.657100   8.469420
242  2 0.0000   9.023060  -7.653430   8.012740
243  1 0.0000  10.094510  -9.586640   8.145310
244  2 0.0000  10.974840  -9.534450   7.493330
245  1 0.0000   1.896250  -4.650230   7.239910
246  2 0.0000   2.001990  -4.736170   8.348780
247  1 0.0000   6.301890  -5.237590  10.818680
248  2 0.0000   6.828590  -5.187840  11.798130
249  1 0.0000   5.766990  -6.443680   8.993110
250  2 0.0000   5.517540  -7.332460   8.475830
251  1 0.0000  -4.530650   0.968320  11.015110
252  2 0.0000  -4.948340   0.279930  10.201000
253  1 0.0000  -2.782490  -2.523990   4.742950
254  2 0.0000  -2.590920  -1.771720   5.525350
255  1 0.0000   0.931140  -1.458280   1.403380
256  2 0.0000   0.708540  -0.370130   1.618400
257  1 0.0000   1.587440  -3.526130   1.719940
258  2 0.0000   1.822770  -4.472130   2.193400
259  1 0.0000   5.174260   2.808700 -11.259280
260  2 0.0000   5.067140   3.296450 -12.196230
261  1 0.0000  -3.588700   2.702690  11.967730
262  2 0.0000  -3.061280   3.646150  12.108960
263  3 0.0000   8.269590  -9.273570   9.371220
264  3 0.0000   9.920810 -10.781200   8.956280
265  3 0.0000   5.907790   1.613430 -11.277720
266  3 0.0000   3.033590  -4.487030   6.474580
267  3 0.0000   6.254720  -6.579940  10.315420
268  3 0.0000  -3.955860   2.212530  10.690540
269  3 0.0000  -1.620760  -2.975240   4.054750
270  3 0.0000   1.101910  -2.378650   2.369530
271  4 0.0000   7.231760  -8.183580  10.659120
272  4 0.0000   0.306280  -2.512130   4.085020

