     765
 i =        0, time =        0.000, E =    -10779.6983904073
  C        -4.9638472884        1.6700882109        0.7382362412
  O        -3.6831367006        1.8011639920        1.1395989861
  O        -5.8308269082        2.4859490090        1.3232940798
  O        -5.3211066782        0.8174862947       -0.1741613920
  C         5.2697578975        4.3165698248        0.9577460858
  O         6.0257201888        3.3502570196        0.9448885015
  O         5.2276869156        5.1102526091       -0.0804235839
  O         4.5843365814        4.6308600331        2.0632339049
  C       -11.0792124926        2.1836868728       -7.1114008879
  O       -10.2302144410        2.0395069075       -6.1510030351
  O       -12.3077590591        1.6753631130       -7.0239006218
  O       -10.6770282434        2.5755670942       -8.3303181750
  C        13.0475352901       -7.5525456453       -4.4579750738
  O        13.0594675206       -6.3371765758       -4.9084948361
  O        13.7870545379       -8.4796567774       -4.9595291144
  O        -9.8539397186       -7.6972767469       -3.2742568031
  C         6.8010429885       -0.3094537287       -6.3793533300
  O         6.7123047039       -1.5488461494       -5.7481278870
  O         7.6634167954        0.0473046577       -7.2537213384
  O         5.9409954944        0.5572394899       -5.8819021074
  C         3.4959493758       -1.0882591129       -7.3492432678
  O         3.6753825303       -2.2091201989       -6.8555889408
  O         3.3424181613       -0.4874512174       -8.5486222745
  O         3.4499530564       -0.0523106051       -6.4348161560
  C        -1.2452616902       12.9874203979      -10.8346110323
  O        -2.2674121924       12.7962532874       -9.9636840259
  O        -0.0754530043       12.4483778459      -10.6767351043
  O        -1.5114164018       13.2527491153      -12.1170835658
  C        -4.4901397048       -3.9516526181       -7.6584074722
  O        -4.3063669357       -4.7338774435       -8.6416296387
  O        -3.8663227080       -4.1695316942       -6.4376113479
  O        -5.1100308015       -2.8143372380       -7.8576104196
  C        -1.7568745500       -3.4314045401       -4.3983312482
  O        -2.6383048589       -4.3661485022       -3.8969353838
  O        -2.0148140772       -2.2075741733       -4.1104330050
  O        -0.7439597510       -3.8250268484       -4.9840564142
  C        -1.6509971894      -10.8857331570        1.1994458603
  O        -2.5976454194      -11.7468612571        0.6864183552
  O        -1.4050433288       -9.8196485774        0.4006853641
  O        -1.0128093592      -10.9187255686        2.3178133857
  C         7.4590977841        9.1233892756        1.5356975609
  O         8.5660473563        8.6869467734        2.1739986423
  O         6.9883529295       10.2892856494        1.5885824243
  O         7.0305623947        8.3289788653        0.5233851069
  C        -8.4037663703        3.2806443796       -3.0030370686
  O        -8.4249141947        3.5104707211       -1.6358406216
  O        -9.3234079855        3.8441806797       -3.8141625018
  O        -7.7095881615        2.3481603920       -3.5993025959
  C         0.0151244838       -4.7527046768        1.3889194680
  O         0.8197128812       -5.5101586215        0.7680080081
  O        -0.2434387635       -3.5494521832        1.0279218645
  O        -0.6024096180       -5.2294709768        2.4078461964
  C        -7.9041311611       -0.3333803183        0.4151677434
  O        -8.2138421738       -0.3757437995        1.7819490521
  O        -8.0976531907        0.8135226295       -0.2300248275
  O        -7.2281425687       -1.3795349211       -0.1165005316
  C         3.1127356208        9.7959582924        0.0739877622
  O         2.3814603327       10.6448363485        0.5952080098
  O         2.7901192094        8.6500055861       -0.4954947789
  O         4.4793799480      -12.2692295230        0.3146152693
  C        -5.7937721717        3.6630111927       -6.0245614534
  O        -5.2291523747        3.7052623248       -4.6684535738
  O        -4.9430630081        3.9183770007       -7.0120093351
  O        -7.0134592268        3.6830629464       -6.1709776808
  C        -2.6611165110       -8.0592582583        7.3760547839
  O        -2.0226412558       -6.8889855614        7.4725057288
  O        -2.0259347912       -9.1446321692        6.9398247177
  O        -3.9025710309       -8.1778710212        7.8668013394
  C        11.0002890662       -3.3013352889       -0.2402665133
  O        11.6478709186       -2.7065181380       -1.1702870721
  O        10.7533831439       -2.5815152255        0.8733825120
  O        10.1888250278       -4.2923726868       -0.5199236271
  C        -4.7092643314        8.2239308398        9.1724406248
  O        -3.9028221828        8.3305222880       10.1664404802
  O        -5.4647699651        9.2287855134        8.7608166670
  O        -5.0500232500        7.0422809667        8.7975905672
  C        -4.9753871250       -2.7279572181        1.1249105760
  O        -4.9560501703       -2.7980230567       -0.1559756926
  O        -5.7513198292       -3.4410006717        1.8597803761
  O        -4.1992681990       -1.9125937979        1.6496709687
  C         6.0550323362        6.7565413331        5.1093738954
  O         4.9465467915        6.0788170193        4.8295546984
  O         6.2131971978        7.9359452786        4.5231910130
  O         6.8134804837        6.4348233488        6.1126781468
  C        -8.2638959104       12.0871904471       -0.6545869658
  O        -7.3417979192       12.9929706048       -0.4576942963
  O        -8.4767266991       11.0096023659       -0.0912081012
  O        -9.0676971126       12.4882029726       -1.6939991925
  C       -12.1847446127       10.0121385863       -2.1255825311
  O        11.1203217135        9.4656627207       -1.4188297934
  O        10.3249870087       11.3091288880       -2.2610623210
  O       -13.2944003886        9.5105742941       -2.5523371048
  C        12.9578330500       -6.4174937776       -9.6197057889
  O        -8.3557922301       -5.7066963348      -10.4426132910
  O        -9.7934492837       -7.5013625326      -10.1593108004
  O        13.0397362250       -5.9941392222       -8.3903744513
  C         2.3925278399        0.8981085830       -2.8409745630
  O         2.2490497643        1.9093491107       -2.0059953628
  O         1.7406254969       -0.2508579795       -2.2927090398
  O         2.8387188461        0.9315726687       -4.0444676682
  C        -8.4190614095       -5.5481631237        0.4245850702
  O        -7.7903427069       -4.5697947579       -0.0700902296
  O        -8.2370210540       -5.8261128831        1.7178945104
  O        -9.0279505942       -6.3606242419       -0.4247870937
  C        -1.2485114931        8.2554414511       -0.8598893834
  O        -2.5229621690        8.1744841768       -1.2615666732
  O        -0.4439200284        8.9536082576       -1.5895361345
  O        -0.9626169319        7.6813443832        0.3173655465
  C        -6.0515709404        6.9177571347       -4.4922223525
  O        -6.5418235039        8.0782525409       -5.0255958081
  O        -6.5382705258        6.3571595556       -3.4763098300
  O        -4.9634393931        6.5474103077       -5.2050278896
  C       -10.7251630898        3.6449535352        7.2889134742
  O        -9.9060463726        4.0406129222        6.3195142358
  O       -11.9574983189        3.1572925476        7.0186092299
  O       -10.4589394231        3.8361567208        8.6518636441
  C         4.1987293338        6.6851473937       -6.4883756580
  O         5.3977652422        6.2077088587       -6.5801811269
  O         3.5565317324        7.3097962963       -7.4593905807
  O         3.7346880925        6.7570393513       -5.3210118363
  C        -1.3052183729        3.9762639927      -10.9675412751
  O        -1.5590379019        2.7611424012      -10.4970516760
  O        -0.0703664505        4.2930032806      -11.5021724176
  O        -2.1551684380        4.9331991423      -10.9931080696
  C        -1.0943633502        4.9042682859        4.3459525401
  O        -0.9467395344        3.6060473659        4.4133518782
  O        -1.8910434620        5.4236734510        3.4618421597
  O        -0.5570496852        5.6805436878        5.3174592736
  C         4.2126358524        3.2154813342       -8.9709909798
  O         4.2348605761        4.0358301674       -9.9883247548
  O         3.2051736746        2.9992484538       -8.1825790436
  O         5.2949221373        2.6898527778       -8.3863242055
  C        -6.0492299819       -2.4667292200       10.0893548439
  O        -4.7137371746       -2.4653811864       10.4407646586
  O        -6.4885321326       -2.0929318461        8.9434006611
  O        -6.9949393430       -2.8894517804      -11.2984749375
  C        -8.4740476803        5.5474464433       -9.8176789228
  O        -7.8470580111        4.4044315808       -9.6035084854
  O        -9.0384042243        6.1966818406       -8.7028612201
  O        -8.5100423426        6.0428365018      -10.9325654253
  C        -8.7183337211       -8.9191033385        8.8576798366
  O        -8.3613209313       -9.7385550710        7.9967284407
  O        -9.6462247088       -9.0925402788      -12.4735377817
  O        -8.3053515107       -7.5797617854        8.9026999222
  C         0.9539328953      -12.7540440740       -9.1541739771
  O         1.4514119939      -12.5502773984      -10.4127524597
  O         0.8962508362      -11.6600207789       -8.3611178013
  O         0.2759742865      -13.8243608193       -8.9590959261
  C         9.8410648582        9.6259744804        6.1075307555
  O       -12.3091266433        9.2214371618        7.2904300908
  O        10.9618361419      -12.4132481779        5.4544180044
  O         8.6341935920        9.9804587794        5.5485643684
  C         2.5133393536       -0.7128902291        1.2466843801
  O         3.0785690168       -1.5481138086        2.0687587734
  O         2.6848111637        0.6163489897        1.1118163518
  O         1.6145100454       -1.1933513694        0.4367023191
  C       -11.9824355702       -0.1684985745       -3.5364359352
  O       -10.8939447998        0.4316641854       -3.7383463783
  O       -12.5100384806       -0.1355901088       -2.3350844080
  O         9.4533338034       -0.6314163512       -4.5086280099
  C       -10.1750642034       -4.1054192489        8.4623155211
  O       -10.9093532768       -3.7989531548        9.4156494035
  O       -10.7243519878       -4.0549608044        7.2564062030
  O        -8.9092145738       -4.3795128323        8.7091830375
  C        12.2853944370        9.2715277257      -11.6678246980
  O        11.6438332137        9.4148179785      -12.8115015964
  O        11.6142977192        8.5953342723      -10.7387922417
  O        13.3138851555        9.9822793958      -11.5407207507
  C         8.9723891614       -8.5559284967        5.9345734338
  O         8.6449928829       -9.6384751736        6.7392085388
  O         9.6848721479       -7.7468209643        6.5714457730
  O         8.6732510244       -8.3237599002        4.7158336463
  C        -7.9087775477       -2.7853162506       -5.0892178090
  O        -8.9112366120       -2.8337373493       -4.1925156294
  O        -7.9654847065       -1.9912195905       -6.1849798398
  O        15.3109401498       -3.7390554420       -5.1951832552
  C        -5.3265638823        2.4943582935      -11.8525779374
  O        -5.3073133079        1.2771622673      -12.1059682597
  O        -5.1609585866        3.5708466287      -12.7694714365
  O        -5.1846202985        2.8701283358      -10.5736784030
  C        -4.4335674757       -8.5253617554        2.8938007658
  O        -3.7038144234       -7.8627179243        2.0534639927
  O        -4.1126624222       -9.7930470168        3.3188256610
  O        -5.3727810885       -7.9638902146        3.4541675585
  C         6.6845444005       -8.4961000797       -3.2540808182
  O         6.5655425996       -7.1790476047       -3.2043350331
  O         5.6229906713       13.0455864608       -3.4464466057
  O         7.9941759840       -8.9504228232       -3.2380490989
  C         3.5656575906       -1.8387623549        7.7025163204
  O         2.3656226344       -1.2241508413        7.4094480003
  O         3.7309364851       -2.4409602771        8.8407461562
  O         4.4263577199       -2.1362275024        6.7383329819
  C       -12.7497989954        6.1907326269        4.8904003289
  O       -12.3359888460        6.6205938038        3.7067462583
  O       -12.4588717470        6.6960912146        6.0073954083
  O       -13.5656152244        5.2018222231        4.7811141021
  C        -7.6370228536        9.4136117256       -7.6926028934
  O        -6.7760889784       10.4702643397       -7.2624960172
  O        -8.4179195724        8.8222418265       -7.0156825446
  O        -7.7796585531        9.4101889752       -9.0457191250
  C        -3.9692448314       -7.4879375192       -1.5186737573
  O        -2.9813188408       -6.8226757020       -0.9493928432
  O        -5.1028487302       -6.8027053192       -1.7623763866
  O        -3.8073092352       -8.7383042997       -1.9466044663
  C        -9.2454939533        7.7836311607        1.1306645728
  O        -8.4791507339        8.7806647966        1.2374822806
  O       -10.4417670545        7.6165108509        1.5906591383
  O        -8.6585847032        6.7905068927        0.4586826707
  C         2.1978313709       -9.0596330706      -13.9778868007
  O         2.4461864913       -9.8624599115        9.2157447715
  O         1.0432442039       -8.7584961150      -14.4592698457
  O         3.4252359012       -8.5281695932        7.6449252770
  C       -13.7061686014       -0.9673537362        7.1427314026
  O         9.6134362746       -1.5763316215        7.3629682039
  O       -13.7376571091        0.2179132806        7.6518447322
  O       -14.6966361435       -1.5417235764        6.6947550299
  C       -11.7735943623        0.0859094919        4.5793386269
  O       -11.1907055293        0.2942880778        3.4204965210
  O       -11.5110088609        0.6387977317        5.6632045340
  O         9.4520317204       -0.8422322229        4.6961562321
  C         1.6559840535       10.6255175799       -4.4638697392
  O         2.4142154526       11.6053574503       -4.9890721967
  O         0.7205860961       10.2424227186       -5.2495518304
  O         1.8589553893       10.2350163859       -3.1445432254
  C        -9.5916570591       -7.3256389504        4.8254952796
  O        -8.5611600407       -8.0168354828        5.0164772196
  O       -10.4500684217       -7.7313061151        3.9288849919
  O        -9.9111611271       -6.3956464351        5.7207997471
  C         1.6750477414       -3.8500650249       -2.7303028712
  O         1.8991935893       -3.3871758927       -1.5191491546
  O         1.2532524615       -5.1121344721       -2.8468811656
  O         1.6769884561       -3.1773040222       -3.8098686131
  C         8.3827748979       -7.8351733512        0.7471336534
  O         9.0089043463       -7.2926037178       -0.2821558598
  O         8.5170432488       -7.0653061395        1.9130316672
  O         7.7112508769       -8.9735823335        0.7891532812
  C       -10.7949898185        8.1899693661       -4.6131759915
  O       -11.6682075985        7.6484100277       -5.4292328224
  O       -10.5407827308        9.4933791540       -4.6253295237
  O       -10.2696872852        7.4647287914       -3.7553775738
  C         7.4247269607       -7.2634440732        9.9302874248
  O         8.6328841627       -6.5800853980        9.8869999730
  O         6.3034203599       -6.6315425533        9.6851986063
  O         7.5594224101       -8.5397755859       10.0627197104
  C        -3.3290285114        3.9429186140       -2.2912184625
  O        -2.0397565001        3.9358554437       -2.0515375998
  O        -3.8098776488        5.1208912770       -2.4038885582
  O        -4.0987765739        2.8488424794       -2.3162152602
  C         5.9875715656       -4.9093586546        4.7055263542
  O         6.6523477230       -5.5774829266        3.7486252020
  O         5.9555599105       -5.2822786117        6.0177925358
  O         5.2716448296       -3.9396746273        4.3512106952
  C        -4.3602501506       -8.6795026493       -6.2066942697
  O        -4.8651035230       -8.5021397618       -5.0561856125
  O        -3.2746214624       -8.0779091726       -6.4803179813
  O        -4.9299867624       -9.4547039288       -7.1984708612
  C       -13.4313166996        2.1323727660      -10.9294537836
  O       -14.1128616240        1.3320553084      -11.6108012712
  O       -13.6153698747        2.1685089618       -9.6900349798
  O       -12.5824073131        3.0293984688      -11.4055619633
  C       -10.1773801679      -10.5833007256       -7.8788740222
  O        -9.5692809455      -10.5908833815       -6.8079197743
  O       -10.2209155826       -9.7095551218       -8.8281295691
  O       -10.9238974050      -11.7687114530       -8.1340803649
  C        -5.6380892027       -5.3093371791        6.8209233292
  O        -4.9515888588       -5.8903108129        5.9240074746
  O        -7.0591879579       -5.2060342953        6.8297711459
  O        -4.9744749116       -4.6739707404        7.7746785192
  C         2.5426431981        2.7543980973        5.0451110850
  O         3.2018362248        3.8560355973        5.4418049306
  O         2.9723052300        1.9547064053        4.0675626071
  O         1.4726608229        2.4187218079        5.7925669178
  C        -0.5159267521        9.1239501650        7.9346423414
  O         0.2601375727        8.1798038239        8.0877806188
  O        -1.4830981614        9.2050905200        7.0312993582
  O        -0.1775531177       10.3104532879        8.6913938833
  C         8.9559062029       -6.7406058643       -7.2377080660
  O         7.6421905794       -6.6306032912       -6.9995614255
  O         9.4896157976       -6.5452546010       -8.4057493473
  O         9.7184466167       -7.1709182811       -6.2414693539
  C         0.8599593650       -7.9554407907       -1.6951202790
  O         1.7877068081       -8.1832603903       -0.6866574455
  O        -0.4479621750       -8.0407452373       -1.5271830638
  O         1.2161610510       -8.1875205158       -2.9288728324
  C         8.1691891678       -2.4664159509      -12.3411297996
  O         7.2697494316       -1.4696103152      -12.7472535046
  O         8.0010294797       -3.5570031701      -12.8624549291
  O         9.3047955419       -2.1219261907      -11.7352522197
  C         8.8549691836       10.9998787537      -11.6007083984
  O         8.8649620384        9.9739800399      -10.6793471430
  O        10.0776188386       11.8057802624      -11.5892949719
  O         8.0839159205      -11.4429540061      -12.5544037923
  C         3.6860430827       -8.1071241265       -9.2470556511
  O         3.1853818883       -8.2617570282      -10.4110617790
  O         3.1047275858       -8.5995949936       -8.1690157185
  O         4.8684142039       -7.4107757010       -9.0605714199
  C        -7.6809596691        0.7837114027        5.4519891772
  O        -7.3731643338        0.8058663008        4.2044431344
  O        -8.9602851909        1.2048728571        5.6488827977
  O        -6.9494112821        0.5455176382        6.4444740458
  C         5.3829999072        9.4617413305        8.3253458547
  O         4.4714959322       10.0603459032        7.7310342829
  O         6.3442590415        9.0438404189        7.5215795256
  O         5.5377606345        8.9922797131        9.4861327966
  C       -12.2889415184        3.5558843259        0.8738752951
  O        10.8927361836        3.4059881486        0.0081911310
  O       -13.1003001744        2.5962031366        1.2169785273
  O       -12.1161368076        4.5154755655        1.6578564260
  C         5.5939590840       -3.5560482782       -9.9825542444
  O         6.0675731594       -4.5400041865      -10.9473835604
  O         5.6694834429       -3.8664383299       -8.7264070755
  O         5.1075510545       -2.4485493033      -10.4922820098
  C         6.1468173272       -4.3983850493       -0.6894048367
  O         6.7017338370       -4.7206257181        0.4732186429
  O         5.1355451653       -3.5563704367       -0.7956592095
  O         6.5314190624       -4.9194534188       -1.8503492244
  C        -1.0830535658        5.3943528482       -6.2514370686
  O        -2.0954717595        5.8816757906       -6.9472432409
  O        -1.4045581532        4.7959208128       -5.1600629425
  O         0.1325482095        5.3730099345       -6.7676758025
  C        -6.7036378685        0.8760025560       -7.6007481404
  O        -5.4256128867        0.5612441000       -7.6355056964
  O        -7.2759759542        1.0010274907       -6.3691636889
  O        -7.3355341095        1.1851409202       -8.6557145929
  C        -3.4578284854       -3.2467550695        6.2443589494
  O        -3.4144140132       -4.0579385093        5.1769776752
  O        -2.7165371574       -3.4528356800        7.4178266047
  O        -3.9541277908       -2.0410013843        6.2553578361
  C       -10.8701724220       -2.4331970844       -8.3805128772
  O       -11.8063156668       -3.2869908180       -8.2564097828
  O       -10.8481904247       -1.2859102997       -7.7035622601
  O        12.2967791053       -2.6513250905       -9.2675250770
  C         4.9330933434      -10.1174947051        4.4440974373
  O         6.2925356660       -9.9853209495        4.2374341898
  O         4.6052448958      -10.0857776891        5.6019497434
  O         4.1365540419      -10.3602899890        3.3924907990
  C        -0.0872506048        1.3743256969       -5.1439400140
  O         0.1269360904        1.7942347996       -6.2719222671
  O        -0.0556108396        0.0017570376       -4.9726672789
  O        -0.2478691055        2.0981810965       -3.9610965124
  C         7.2709968327       -0.5443806339        1.6238587491
  O         6.3770499405        0.3464429568        1.7506877980
  O         8.4505395791       -0.1534677311        1.1997220551
  O         7.2190802252       -1.8494532347        2.1821902461
  C         0.3026112365       -8.5739732382        3.8484201019
  O         0.7243323323       -9.5872858050        4.5294236297
  O         0.9382756274       -8.3417515420        2.7386560527
  O        -0.3764459691       -7.7017915770        4.5197596321
  C         9.6321725107       -4.4501350971        3.6636292546
  O         9.4191552836       -5.5365919166        4.3382085787
  O         8.7486376132       -4.1059370367        2.7614252733
  O        10.7353770078       -3.8208563167        3.7251587430
  C        -9.5497433775        3.6306436603        3.0041440253
  O        -8.9629763319        4.8044413960        2.9504523924
  O       -10.7549696760        3.5649588845        3.7222143307
  O        -9.0476196194        2.5904858621        2.4736126584
  C       -14.0986972883        5.9124096939        9.2167182444
  O       -13.1979660614        6.6749870488        9.7926049053
  O       -15.3212092449        6.0187391363      -12.7587385168
  O       -13.4703578285        5.1166548085        8.2304255065
  C        -7.3760258136      -11.4650328388        4.4336403569
  O        -6.6548421166      -11.4258946756        5.4370892489
  O        -8.5129155935      -12.1240038801        4.3858765310
  O        -7.0892471717       11.5437977683        3.2875810126
  C         9.2334429210        6.9132532693       -8.7074208734
  O         9.9149189119        5.7217531824       -9.2321832489
  O         7.9816173902        6.8946708317       -8.5182571868
  O         9.9111274436        7.8752050446       -8.3337237740
  C        -4.5510116564        5.2775311443        6.0044923882
  O        -5.0363044736        4.6639539720        6.9990490140
  O        -3.9265042956        6.4418690822        5.9970886189
  O        -4.7515532840        4.6113857165        4.7279962479
  C        -6.3643035262       -9.0698675698      -10.7702678674
  O        -6.3004277458       -7.7176544823      -10.8917511164
  O        -5.3643481558       -9.8647108102      -11.1390748757
  O        -7.3936345696       -9.5721328836      -10.2830690731
  C        -8.8656100681       -2.4222172992        5.3535165410
  O        -9.9763530658       -1.8354364471        5.0561523169
  O        -8.3014734191       -3.3730828838        4.5691249728
  O        -8.1411111729       -2.0720457928        6.3828372120
  C         9.3479629699       -4.9116289603       -3.8056843410
  O         9.3011319415       -6.0627906673       -3.2800731004
  O         8.2522819025       -4.2531073288       -4.2045652398
  O        10.3708257291       -4.1989774604       -3.6985742380
  C         5.4370390800        3.5500962810       -3.8726010839
  O         5.3581473336        2.6158539879       -2.9842721918
  O         5.8151935818        4.7410694932       -3.5637261916
  O         5.2398999529        3.2637410458       -5.1265045975
  C        -4.7283598710        6.9997604719       -8.9507118292
  O        -5.6489596519        7.3881660634       -8.0134050290
  O        -4.7610591328        5.8853063784       -9.4833680011
  O        -3.6782638702        7.8753558835       -8.9814805751
  C         2.0399707493       -4.7053785070       -9.6815897948
  O         1.9599432727       -4.8956301438      -10.9251848409
  O         1.4323881988       -5.7107811896       -9.0409179145
  O         2.5760097421       -3.6774558936       -9.2177713280
  C        -8.5293688920        6.2322006444        7.7000352669
  O        -7.7455630902        5.4665666377        8.4619973457
  O        -9.6471506072        6.6077055159        8.2606485541
  O        -8.0635498188        6.8219084875        6.6969093145
  C        -0.9566721860       -0.0275042745        3.2669154275
  O        -0.0627469641       -0.9781453984        3.2291954611
  O        -1.7930762924        0.0725105902        2.1519641344
  O        -1.1826367349        0.6950310017        4.3083171845
  C        -9.7603427893       -0.2771142827        9.7193072538
  O        -8.8933482564        0.6089892035       10.0873363336
  O       -10.8096475682       -0.5107823956       10.4591971925
  O        -9.4945211199       -0.8675282874        8.5595996767
  C         4.8629994206        1.5984779245        9.5741951105
  O       -16.6719655618        2.6615636179        9.7045391517
  O         5.1383869868        0.7580856737        8.5322040291
  O         4.0866033597        1.1781564326       10.5201569046
  C        -4.8345047875        8.5526911232        2.4017663520
  O        -4.5484871021        7.4082110357        3.0928308205
  O        -4.8288732121        8.3346090939        1.0704709087
  O        -5.1291760401        9.6402580223        2.9303126422
  C         5.7497049251        7.9403307587       -2.6995168216
  O         5.2913285642        6.8998226455       -2.1073444707
  O         5.4738399214        9.1327531641       -2.3257017793
  O         6.5018972104        7.7439308194       -3.8528624522
  C         2.4379729624        7.7968931144        5.1941428774
  O         1.7877734613        8.0244824065        4.0966171726
  O         2.3190228221      -15.5678351228        5.8877678021
  O         3.2715680461        8.7113387214        5.7035679680
  C         1.6416748514       -4.6681612683      -15.3573997322
  O         1.0705079154       -3.9726132804      -14.3534669487
  O         0.8742735995       -5.0436093084      -16.2750085250
  O         2.9310366173       -4.9814858322      -15.4865335688
  C         1.7594441779        4.8893970462        1.7064329425
  O         1.7898147982        4.6002298082        3.0386152023
  O         1.7850953769        6.0889260939        1.2724526677
  O         1.8007650467        3.7129689586        0.9542640780
  C        -1.8547606057       -0.7984481866       -1.0396136675
  O        -1.4371080928        0.2786895931       -1.7100776203
  O        -3.0833898358       -1.0470803543       -1.1072199034
  O        -0.8815134243       -1.3698829552       -0.4965017697
  C         4.3480832911       -5.7050138550       -5.6124120760
  O         4.9164027456       -4.8979302993       -4.4371322696
  O         3.4740211835       -6.6926157813       -5.2730127393
  O         4.2861580674       -5.2390122953       -6.8280528733
  C        -5.1285215382       -0.5388711382       -3.8667176212
  O        -5.0055993003       -0.9839764748       -5.1341387231
  O        -4.7698959033        0.7235242964       -3.7987900868
  O        -5.4403433251       -1.2442742211       -2.8069219635
  C         4.0455237204       -6.9256433052       -0.2465086812
  O         3.5673408143       -6.5092312859        0.8938250537
  O         3.4244861032       -6.2533358929       -1.1827722953
  O         4.9978894103       -7.8332721198       -0.4075051449
  C         3.3954994726        6.0590001344        9.3031745525
  O         4.2242256942        5.9294365802        8.2780358437
  O         3.1709505171        7.2148153723        9.9255427884
  O         2.7837683133        5.1526580037        9.8998807475
  C         1.9141277496        5.4995553176       -2.7046177102
  O         0.8249615896        4.7860553346       -3.0059852172
  O         3.0016733931        5.1032424189       -2.1783209954
  O         1.7117534134        6.8915538602       -2.5246945891
  C        -2.6336133526      -12.0931784376       -6.1817998739
  O        -3.7165786160      -11.7263098452       -5.5854263019
  O        -2.2478004885      -11.4222261204       -7.2751560771
  O        -2.0369833058        9.0751065231       -5.7210371409