LAMMPS data file. CGCMM style. atom_style full generated by VMD/TopoTools v1.5 on Tue Apr 11 13:31:04 CEST 2017
 1356 atoms
 520 bonds
 620 angles
 0 dihedrals
 0 impropers
 7 atom types
 2 bond types
 3 angle types
 0 dihedral types
 0 improper types
 -11.888000 12.112000  xlo xhi
 -10.396805 10.387805  ylo yhi
 -11.971500 13.486500  zlo zhi
 -12.000000 0.000000 0.000000 xy xz yz

# Pair Coeffs
#
# 1  Al
# 2  H
# 3  Hw
# 4  Obr
# 5  Oh
# 6  Ow
# 7  Si

# Bond Coeffs
#
# 1  H-Oh
# 2  Hw-Ow

# Angle Coeffs
#
# 1  H-Oh-Si
# 2  Al-Oh-H
# 3  Hw-Ow-Hw

 Masses

 1 26.981539 # Al
 2 1.007940 # H
 3 1.007940 # Hw
 4 15.999400 # Obr
 5 15.999400 # Oh
 6 15.999400 # Ow
 7 28.085501 # Si

 Atoms

1 1 1 0.000000 9.663000 1.762000 2.793000 # Al 
2 2 1 0.000000 9.663000 1.762000 11.279000 # Al 
3 3 1 0.000000 9.663000 1.762000 -5.693000 # Al 
4 4 1 0.000000 -9.663000 -1.762000 2.794000 # Al 
5 5 1 0.000000 -9.663000 -1.762000 11.280000 # Al 
6 6 1 0.000000 -9.663000 -1.762000 -5.692000 # Al 
7 7 1 0.000000 -1.778000 9.751000 2.803000 # Al 
8 8 1 0.000000 -1.778000 9.751000 11.289000 # Al 
9 9 1 0.000000 -1.778000 9.751000 -5.683000 # Al 
10 10 1 0.000000 1.779000 -9.754000 2.799000 # Al 
11 11 1 0.000000 1.779000 -9.754000 11.285000 # Al 
12 12 1 0.000000 1.779000 -9.754000 -5.687000 # Al 
13 13 1 0.000000 -9.670000 -1.764000 -2.781000 # Al 
14 14 1 0.000000 -9.670000 -1.764000 5.705000 # Al 
15 15 1 0.000000 -9.670000 -1.764000 -11.267000 # Al 
16 16 1 0.000000 9.669000 1.764000 -2.782000 # Al 
17 17 1 0.000000 9.669000 1.764000 5.704000 # Al 
18 18 1 0.000000 9.669000 1.764000 -11.268000 # Al 
19 19 1 0.000000 1.777000 -9.751000 -2.806000 # Al 
20 20 1 0.000000 1.777000 -9.751000 5.680000 # Al 
21 21 1 0.000000 1.777000 -9.751000 -11.292000 # Al 
22 22 1 0.000000 -1.779000 9.754000 -2.801000 # Al 
23 23 1 0.000000 -1.779000 9.754000 5.685000 # Al 
24 24 1 0.000000 -1.779000 9.754000 -11.287000 # Al 
25 25 1 0.000000 8.986000 4.248000 -1.446000 # Al 
26 26 1 0.000000 8.986000 4.248000 7.040000 # Al 
27 27 1 0.000000 8.986000 4.248000 -9.932000 # Al 
28 28 1 0.000000 -8.986000 -4.249000 -1.445000 # Al 
29 29 1 0.000000 -8.986000 -4.249000 7.041000 # Al 
30 30 1 0.000000 -8.986000 -4.249000 -9.931000 # Al 
31 31 1 0.000000 -4.192000 8.848000 -1.455000 # Al 
32 32 1 0.000000 -4.192000 8.848000 7.031000 # Al 
33 33 1 0.000000 -4.192000 8.848000 -9.941000 # Al 
34 34 1 0.000000 4.195000 -8.853000 -1.455000 # Al 
35 35 1 0.000000 4.195000 -8.853000 7.031000 # Al 
36 36 1 0.000000 4.195000 -8.853000 -9.941000 # Al 
37 37 1 0.000000 -8.981000 -4.243000 1.452000 # Al 
38 38 1 0.000000 -8.981000 -4.243000 9.938000 # Al 
39 39 1 0.000000 -8.981000 -4.243000 -7.034000 # Al 
40 40 1 0.000000 8.980000 4.244000 1.452000 # Al 
41 41 1 0.000000 8.980000 4.244000 9.938000 # Al 
42 42 1 0.000000 8.980000 4.244000 -7.034000 # Al 
43 43 1 0.000000 4.193000 -8.848000 1.454000 # Al 
44 44 1 0.000000 4.193000 -8.848000 9.940000 # Al 
45 45 1 0.000000 4.193000 -8.848000 -7.032000 # Al 
46 46 1 0.000000 -4.195000 8.852000 1.455000 # Al 
47 47 1 0.000000 -4.195000 8.852000 9.941000 # Al 
48 48 1 0.000000 -4.195000 8.852000 -7.031000 # Al 
49 49 1 0.000000 7.556000 6.414000 2.806000 # Al 
50 50 1 0.000000 7.556000 6.414000 11.292000 # Al 
51 51 1 0.000000 7.556000 6.414000 -5.680000 # Al 
52 52 1 0.000000 -7.556000 -6.414000 2.805000 # Al 
53 53 1 0.000000 -7.556000 -6.414000 11.291000 # Al 
54 54 1 0.000000 -7.556000 -6.414000 -5.681000 # Al 
55 55 1 0.000000 -6.360000 7.491000 2.790000 # Al 
56 56 1 0.000000 -6.360000 7.491000 11.276000 # Al 
57 57 1 0.000000 -6.360000 7.491000 -5.696000 # Al 
58 58 1 0.000000 6.359000 -7.488000 2.786000 # Al 
59 59 1 0.000000 6.359000 -7.488000 11.272000 # Al 
60 60 1 0.000000 6.359000 -7.488000 -5.700000 # Al 
61 61 1 0.000000 -7.558000 -6.418000 -2.799000 # Al 
62 62 1 0.000000 -7.558000 -6.418000 5.687000 # Al 
63 63 1 0.000000 -7.558000 -6.418000 -11.285000 # Al 
64 64 1 0.000000 7.558000 6.418000 -2.798000 # Al 
65 65 1 0.000000 7.558000 6.418000 5.688000 # Al 
66 66 1 0.000000 7.558000 6.418000 -11.284000 # Al 
67 67 1 0.000000 6.360000 -7.492000 -2.788000 # Al 
68 68 1 0.000000 6.360000 -7.492000 5.698000 # Al 
69 69 1 0.000000 6.360000 -7.492000 -11.274000 # Al 
70 70 1 0.000000 -6.360000 7.488000 -2.785000 # Al 
71 71 1 0.000000 -6.360000 7.488000 5.701000 # Al 
72 72 1 0.000000 -6.360000 7.488000 -11.271000 # Al 
73 73 1 0.000000 5.566000 8.055000 -1.454000 # Al 
74 74 1 0.000000 5.566000 8.055000 7.032000 # Al 
75 75 1 0.000000 5.566000 8.055000 -9.940000 # Al 
76 76 1 0.000000 -5.566000 -8.056000 -1.455000 # Al 
77 77 1 0.000000 -5.566000 -8.056000 7.031000 # Al 
78 78 1 0.000000 -5.566000 -8.056000 -9.941000 # Al 
79 79 1 0.000000 -8.171000 5.658000 -1.446000 # Al 
80 80 1 0.000000 -8.171000 5.658000 7.040000 # Al 
81 81 1 0.000000 -8.171000 5.658000 -9.932000 # Al 
82 82 1 0.000000 8.165000 -5.656000 -1.450000 # Al 
83 83 1 0.000000 8.165000 -5.656000 7.036000 # Al 
84 84 1 0.000000 8.165000 -5.656000 -9.936000 # Al 
85 85 1 0.000000 -5.570000 -8.059000 1.454000 # Al 
86 86 1 0.000000 -5.570000 -8.059000 9.940000 # Al 
87 87 1 0.000000 -5.570000 -8.059000 -7.032000 # Al 
88 88 1 0.000000 5.569000 8.059000 1.455000 # Al 
89 89 1 0.000000 5.569000 8.059000 9.941000 # Al 
90 90 1 0.000000 5.569000 8.059000 -7.031000 # Al 
91 91 1 0.000000 8.171000 -5.657000 1.448000 # Al 
92 92 1 0.000000 8.171000 -5.657000 9.934000 # Al 
93 93 1 0.000000 8.171000 -5.657000 -7.038000 # Al 
94 94 1 0.000000 -8.166000 5.655000 1.452000 # Al 
95 95 1 0.000000 -8.166000 5.655000 9.938000 # Al 
96 96 1 0.000000 -8.166000 5.655000 -7.034000 # Al 
97 97 1 0.000000 3.308000 9.254000 2.790000 # Al 
98 98 1 0.000000 3.308000 9.254000 11.276000 # Al 
99 99 1 0.000000 3.308000 9.254000 -5.696000 # Al 
100 100 1 0.000000 -3.308000 -9.256000 2.782000 # Al 
101 101 1 0.000000 -3.308000 -9.256000 11.268000 # Al 
102 102 1 0.000000 -3.308000 -9.256000 -5.704000 # Al 
103 103 1 0.000000 -9.333000 3.336000 2.808000 # Al 
104 104 1 0.000000 -9.333000 3.336000 11.294000 # Al 
105 105 1 0.000000 -9.333000 3.336000 -5.678000 # Al 
106 106 1 0.000000 9.337000 -3.337000 2.803000 # Al 
107 107 1 0.000000 9.337000 -3.337000 11.289000 # Al 
108 108 1 0.000000 9.337000 -3.337000 -5.683000 # Al 
109 109 1 0.000000 -3.305000 -9.250000 -2.792000 # Al 
110 110 1 0.000000 -3.305000 -9.250000 5.694000 # Al 
111 111 1 0.000000 -3.305000 -9.250000 -11.278000 # Al 
112 112 1 0.000000 3.305000 9.251000 -2.785000 # Al 
113 113 1 0.000000 3.305000 9.251000 5.701000 # Al 
114 114 1 0.000000 3.305000 9.251000 -11.271000 # Al 
115 115 1 0.000000 9.333000 -3.336000 -2.801000 # Al 
116 116 1 0.000000 9.333000 -3.336000 5.685000 # Al 
117 117 1 0.000000 9.333000 -3.336000 -11.287000 # Al 
118 118 1 0.000000 -9.338000 3.337000 -2.797000 # Al 
119 119 1 0.000000 -9.338000 3.337000 5.689000 # Al 
120 120 1 0.000000 -9.338000 3.337000 -11.283000 # Al 
121 121 1 0.000000 0.814000 9.905000 -1.448000 # Al 
122 122 1 0.000000 0.814000 9.905000 7.038000 # Al 
123 123 1 0.000000 0.814000 9.905000 -9.934000 # Al 
124 124 1 0.000000 -0.815000 -9.899000 -1.452000 # Al 
125 125 1 0.000000 -0.815000 -9.899000 7.034000 # Al 
126 126 1 0.000000 -0.815000 -9.899000 -9.938000 # Al 
127 127 1 0.000000 -9.765000 0.793000 -1.452000 # Al 
128 128 1 0.000000 -9.765000 0.793000 7.034000 # Al 
129 129 1 0.000000 -9.765000 0.793000 -9.938000 # Al 
130 130 1 0.000000 9.764000 -0.794000 -1.453000 # Al 
131 131 1 0.000000 9.764000 -0.794000 7.033000 # Al 
132 132 1 0.000000 9.764000 -0.794000 -9.939000 # Al 
133 133 1 0.000000 -0.814000 -9.906000 1.446000 # Al 
134 134 1 0.000000 -0.814000 -9.906000 9.932000 # Al 
135 135 1 0.000000 -0.814000 -9.906000 -7.040000 # Al 
136 136 1 0.000000 0.815000 9.900000 1.451000 # Al 
137 137 1 0.000000 0.815000 9.900000 9.937000 # Al 
138 138 1 0.000000 0.815000 9.900000 -7.035000 # Al 
139 139 1 0.000000 9.759000 -0.793000 1.456000 # Al 
140 140 1 0.000000 9.759000 -0.793000 9.942000 # Al 
141 141 1 0.000000 9.759000 -0.793000 -7.030000 # Al 
142 142 1 0.000000 -9.759000 0.793000 1.457000 # Al 
143 143 1 0.000000 -9.759000 0.793000 9.943000 # Al 
144 144 1 0.000000 -9.759000 0.793000 -7.029000 # Al 
145 145 2 0.000000 5.893000 2.111000 -0.002000 # H 
146 146 2 0.000000 5.893000 2.111000 8.484000 # H 
147 147 2 0.000000 5.893000 2.111000 -8.488000 # H 
148 148 2 0.000000 -5.893000 -2.111000 -0.003000 # H 
149 149 2 0.000000 -5.893000 -2.111000 8.483000 # H 
150 150 2 0.000000 -5.893000 -2.111000 -8.489000 # H 
151 151 2 0.000000 -1.892000 5.920000 0.004000 # H 
152 152 2 0.000000 -1.892000 5.920000 8.490000 # H 
153 153 2 0.000000 -1.892000 5.920000 -8.482000 # H 
154 154 2 0.000000 1.892000 -5.920000 -0.004000 # H 
155 155 2 0.000000 1.892000 -5.920000 8.482000 # H 
156 156 2 0.000000 1.892000 -5.920000 -8.490000 # H 
157 157 2 0.000000 7.485000 8.301000 -0.001000 # H 
158 158 2 0.000000 7.485000 8.301000 8.485000 # H 
159 159 2 0.000000 7.485000 8.301000 -8.487000 # H 
160 160 2 0.000000 -7.485000 -8.301000 -0.005000 # H 
161 161 2 0.000000 -7.485000 -8.301000 8.481000 # H 
162 162 2 0.000000 -7.485000 -8.301000 -8.491000 # H 
163 163 2 0.000000 -8.503000 7.578000 0.004000 # H 
164 164 2 0.000000 -8.503000 7.578000 8.490000 # H 
165 165 2 0.000000 -8.503000 7.578000 -8.482000 # H 
166 166 2 0.000000 8.503000 -7.578000 -0.000000 # H 
167 167 2 0.000000 8.503000 -7.578000 8.486000 # H 
168 168 2 0.000000 8.503000 -7.578000 -8.486000 # H 
169 169 2 0.000000 11.444000 -1.918000 -3.106000 # H 
170 170 2 0.000000 11.444000 -1.918000 5.380000 # H 
171 171 2 0.000000 11.444000 -1.918000 -11.592000 # H 
172 172 2 0.000000 -11.447000 1.917000 -3.106000 # H 
173 173 2 0.000000 -11.447000 1.917000 5.380000 # H 
174 174 2 0.000000 -11.447000 1.917000 -11.592000 # H 
175 175 2 0.000000 2.139000 11.539000 -3.042000 # H 
176 176 2 0.000000 2.139000 11.539000 5.444000 # H 
177 177 2 0.000000 2.139000 11.539000 -11.528000 # H 
178 178 2 0.000000 -2.133000 -11.531000 -3.051000 # H 
179 179 2 0.000000 -2.133000 -11.531000 5.435000 # H 
180 180 2 0.000000 -2.133000 -11.531000 -11.537000 # H 
181 181 2 0.000000 -11.443000 1.919000 3.108000 # H 
182 182 2 0.000000 -11.443000 1.919000 11.594000 # H 
183 183 2 0.000000 -11.443000 1.919000 -5.378000 # H 
184 184 2 0.000000 11.445000 -1.918000 3.107000 # H 
185 185 2 0.000000 11.445000 -1.918000 11.593000 # H 
186 186 2 0.000000 11.445000 -1.918000 -5.379000 # H 
187 187 2 0.000000 -2.153000 -11.559000 3.015000 # H 
188 188 2 0.000000 -2.153000 -11.559000 11.501000 # H 
189 189 2 0.000000 -2.153000 -11.559000 -5.471000 # H 
190 190 2 0.000000 2.147000 11.551000 3.024000 # H 
191 191 2 0.000000 2.147000 11.551000 11.510000 # H 
192 192 2 0.000000 2.147000 11.551000 -5.462000 # H 
193 193 2 0.000000 5.217000 3.586000 4.260000 # H 
194 194 2 0.000000 5.217000 3.586000 12.746000 # H 
195 195 2 0.000000 5.217000 3.586000 -4.226000 # H 
196 196 2 0.000000 -5.217000 -3.585000 4.259000 # H 
197 197 2 0.000000 -5.217000 -3.585000 12.745000 # H 
198 198 2 0.000000 -5.217000 -3.585000 -4.227000 # H 
199 199 2 0.000000 -3.356000 5.168000 4.223000 # H 
200 200 2 0.000000 -3.356000 5.168000 12.709000 # H 
201 201 2 0.000000 -3.356000 5.168000 -4.263000 # H 
202 202 2 0.000000 3.356000 -5.168000 4.264000 # H 
203 203 2 0.000000 3.356000 -5.168000 12.750000 # H 
204 204 2 0.000000 3.356000 -5.168000 -4.222000 # H 
205 205 2 0.000000 5.126000 9.837000 4.250000 # H 
206 206 2 0.000000 5.126000 9.837000 12.736000 # H 
207 207 2 0.000000 5.126000 9.837000 -4.236000 # H 
208 208 2 0.000000 -5.126000 -9.838000 4.236000 # H 
209 209 2 0.000000 -5.126000 -9.838000 12.722000 # H 
210 210 2 0.000000 -5.126000 -9.838000 -4.250000 # H 
211 211 2 0.000000 -10.267000 5.060000 4.248000 # H 
212 212 2 0.000000 -10.267000 5.060000 12.734000 # H 
213 213 2 0.000000 -10.267000 5.060000 -4.238000 # H 
214 214 2 0.000000 10.266000 -5.060000 4.246000 # H 
215 215 2 0.000000 10.266000 -5.060000 12.732000 # H 
216 216 2 0.000000 10.266000 -5.060000 -4.240000 # H 
217 217 2 0.000000 11.512000 1.037000 1.119000 # H 
218 218 2 0.000000 11.512000 1.037000 9.605000 # H 
219 219 2 0.000000 11.512000 1.037000 -7.367000 # H 
220 220 2 0.000000 -11.511000 -1.037000 1.119000 # H 
221 221 2 0.000000 -11.511000 -1.037000 9.605000 # H 
222 222 2 0.000000 -11.511000 -1.037000 -7.367000 # H 
223 223 2 0.000000 -1.049000 11.633000 1.130000 # H 
224 224 2 0.000000 -1.049000 11.633000 9.616000 # H 
225 225 2 0.000000 -1.049000 11.633000 -7.356000 # H 
226 226 2 0.000000 1.048000 -11.663000 1.151000 # H 
227 227 2 0.000000 1.048000 -11.663000 9.637000 # H 
228 228 2 0.000000 1.048000 -11.663000 -7.335000 # H 
229 229 2 0.000000 -11.516000 -1.038000 -1.108000 # H 
230 230 2 0.000000 -11.516000 -1.038000 7.378000 # H 
231 231 2 0.000000 -11.516000 -1.038000 -9.594000 # H 
232 232 2 0.000000 11.514000 1.038000 -1.108000 # H 
233 233 2 0.000000 11.514000 1.038000 7.378000 # H 
234 234 2 0.000000 11.514000 1.038000 -9.594000 # H 
235 235 2 0.000000 1.051000 -11.625000 -1.124000 # H 
236 236 2 0.000000 1.051000 -11.625000 7.362000 # H 
237 237 2 0.000000 1.051000 -11.625000 -9.610000 # H 
238 238 2 0.000000 -1.050000 11.654000 -1.144000 # H 
239 239 2 0.000000 -1.050000 11.654000 7.342000 # H 
240 240 2 0.000000 -1.050000 11.654000 -9.630000 # H 
241 241 2 0.000000 4.181000 4.598000 0.004000 # H 
242 242 2 0.000000 4.181000 4.598000 8.490000 # H 
243 243 2 0.000000 4.181000 4.598000 -8.482000 # H 
244 244 2 0.000000 -4.181000 -4.599000 0.003000 # H 
245 245 2 0.000000 -4.181000 -4.599000 8.489000 # H 
246 246 2 0.000000 -4.181000 -4.599000 -8.483000 # H 
247 247 2 0.000000 -4.775000 4.047000 -0.004000 # H 
248 248 2 0.000000 -4.775000 4.047000 8.482000 # H 
249 249 2 0.000000 -4.775000 4.047000 -8.490000 # H 
250 250 2 0.000000 4.774000 -4.047000 0.004000 # H 
251 251 2 0.000000 4.774000 -4.047000 8.490000 # H 
252 252 2 0.000000 4.774000 -4.047000 -8.482000 # H 
253 253 2 0.000000 2.311000 11.152000 0.001000 # H 
254 254 2 0.000000 2.311000 11.152000 8.487000 # H 
255 255 2 0.000000 2.311000 11.152000 -8.485000 # H 
256 256 2 0.000000 -2.312000 -11.152000 -0.004000 # H 
257 257 2 0.000000 -2.312000 -11.152000 8.482000 # H 
258 258 2 0.000000 -2.312000 -11.152000 -8.490000 # H 
259 259 2 0.000000 -10.932000 2.332000 0.003000 # H 
260 260 2 0.000000 -10.932000 2.332000 8.489000 # H 
261 261 2 0.000000 -10.932000 2.332000 -8.483000 # H 
262 262 2 0.000000 10.931000 -2.332000 0.004000 # H 
263 263 2 0.000000 10.931000 -2.332000 8.490000 # H 
264 264 2 0.000000 10.931000 -2.332000 -8.482000 # H 
265 265 2 0.000000 11.083000 3.915000 -3.020000 # H 
266 266 2 0.000000 11.083000 3.915000 5.466000 # H 
267 267 2 0.000000 11.083000 3.915000 -11.506000 # H 
268 268 2 0.000000 -11.087000 -3.916000 -3.015000 # H 
269 269 2 0.000000 -11.087000 -3.916000 5.471000 # H 
270 270 2 0.000000 -11.087000 -3.916000 -11.501000 # H 
271 271 2 0.000000 -4.062000 10.869000 -3.106000 # H 
272 272 2 0.000000 -4.062000 10.869000 5.380000 # H 
273 273 2 0.000000 -4.062000 10.869000 -11.592000 # H 
274 274 2 0.000000 4.061000 -10.870000 -3.107000 # H 
275 275 2 0.000000 4.061000 -10.870000 5.379000 # H 
276 276 2 0.000000 4.061000 -10.870000 -11.593000 # H 
277 277 2 0.000000 -11.053000 -3.917000 3.051000 # H 
278 278 2 0.000000 -11.053000 -3.917000 11.537000 # H 
279 279 2 0.000000 -11.053000 -3.917000 -5.435000 # H 
280 280 2 0.000000 11.057000 3.918000 3.046000 # H 
281 281 2 0.000000 11.057000 3.918000 11.532000 # H 
282 282 2 0.000000 11.057000 3.918000 -5.440000 # H 
283 283 2 0.000000 4.062000 -10.870000 3.106000 # H 
284 284 2 0.000000 4.062000 -10.870000 11.592000 # H 
285 285 2 0.000000 4.062000 -10.870000 -5.380000 # H 
286 286 2 0.000000 -4.060000 10.870000 3.107000 # H 
287 287 2 0.000000 -4.060000 10.870000 11.593000 # H 
288 288 2 0.000000 -4.060000 10.870000 -5.379000 # H 
289 289 2 0.000000 2.798000 5.491000 4.222000 # H 
290 290 2 0.000000 2.798000 5.491000 12.708000 # H 
291 291 2 0.000000 2.798000 5.491000 -4.264000 # H 
292 292 2 0.000000 -2.798000 -5.491000 4.208000 # H 
293 293 2 0.000000 -2.798000 -5.491000 12.694000 # H 
294 294 2 0.000000 -2.798000 -5.491000 -4.278000 # H 
295 295 2 0.000000 -5.714000 2.725000 4.277000 # H 
296 296 2 0.000000 -5.714000 2.725000 12.763000 # H 
297 297 2 0.000000 -5.714000 2.725000 -4.209000 # H 
298 298 2 0.000000 5.713000 -2.725000 4.227000 # H 
299 299 2 0.000000 5.713000 -2.725000 12.713000 # H 
300 300 2 0.000000 5.713000 -2.725000 -4.259000 # H 
301 301 2 0.000000 -0.751000 11.421000 4.242000 # H 
302 302 2 0.000000 -0.751000 11.421000 12.728000 # H 
303 303 2 0.000000 -0.751000 11.421000 -4.244000 # H 
304 304 2 0.000000 0.751000 -11.421000 4.238000 # H 
305 305 2 0.000000 0.751000 -11.421000 12.724000 # H 
306 306 2 0.000000 0.751000 -11.421000 -4.248000 # H 
307 307 2 0.000000 -11.083000 -0.479000 4.253000 # H 
308 308 2 0.000000 -11.083000 -0.479000 12.739000 # H 
309 309 2 0.000000 -11.083000 -0.479000 -4.233000 # H 
310 310 2 0.000000 11.083000 0.479000 4.251000 # H 
311 311 2 0.000000 11.083000 0.479000 12.737000 # H 
312 312 2 0.000000 11.083000 0.479000 -4.235000 # H 
313 313 2 0.000000 9.542000 6.722000 1.124000 # H 
314 314 2 0.000000 9.542000 6.722000 9.610000 # H 
315 315 2 0.000000 9.542000 6.722000 -7.362000 # H 
316 316 2 0.000000 -9.542000 -6.722000 1.124000 # H 
317 317 2 0.000000 -9.542000 -6.722000 9.610000 # H 
318 318 2 0.000000 -9.542000 -6.722000 -7.362000 # H 
319 319 2 0.000000 -6.658000 9.453000 1.114000 # H 
320 320 2 0.000000 -6.658000 9.453000 9.600000 # H 
321 321 2 0.000000 -6.658000 9.453000 -7.372000 # H 
322 322 2 0.000000 6.653000 -9.451000 1.114000 # H 
323 323 2 0.000000 6.653000 -9.451000 9.600000 # H 
324 324 2 0.000000 6.653000 -9.451000 -7.372000 # H 
325 325 2 0.000000 -9.576000 -6.740000 -1.151000 # H 
326 326 2 0.000000 -9.576000 -6.740000 7.335000 # H 
327 327 2 0.000000 -9.576000 -6.740000 -9.637000 # H 
328 328 2 0.000000 9.576000 6.739000 -1.151000 # H 
329 329 2 0.000000 9.576000 6.739000 7.335000 # H 
330 330 2 0.000000 9.576000 6.739000 -9.637000 # H 
331 331 2 0.000000 6.657000 -9.453000 -1.113000 # H 
332 332 2 0.000000 6.657000 -9.453000 7.373000 # H 
333 333 2 0.000000 6.657000 -9.453000 -9.599000 # H 
334 334 2 0.000000 -6.652000 9.451000 -1.113000 # H 
335 335 2 0.000000 -6.652000 9.451000 7.373000 # H 
336 336 2 0.000000 -6.652000 9.451000 -9.599000 # H 
337 337 2 0.000000 1.118000 6.159000 -0.004000 # H 
338 338 2 0.000000 1.118000 6.159000 8.482000 # H 
339 339 2 0.000000 1.118000 6.159000 -8.490000 # H 
340 340 2 0.000000 -1.118000 -6.159000 0.002000 # H 
341 341 2 0.000000 -1.118000 -6.159000 8.488000 # H 
342 342 2 0.000000 -1.118000 -6.159000 -8.484000 # H 
343 343 2 0.000000 -6.075000 1.320000 -0.002000 # H 
344 344 2 0.000000 -6.075000 1.320000 8.484000 # H 
345 345 2 0.000000 -6.075000 1.320000 -8.488000 # H 
346 346 2 0.000000 6.074000 -1.321000 -0.003000 # H 
347 347 2 0.000000 6.074000 -1.321000 8.483000 # H 
348 348 2 0.000000 6.074000 -1.321000 -8.489000 # H 
349 349 2 0.000000 -3.447000 10.633000 0.000000 # H 
350 350 2 0.000000 -3.447000 10.633000 8.486000 # H 
351 351 2 0.000000 -3.447000 10.633000 -8.486000 # H 
352 352 2 0.000000 3.446000 -10.632000 0.001000 # H 
353 353 2 0.000000 3.446000 -10.632000 8.487000 # H 
354 354 2 0.000000 3.446000 -10.632000 -8.485000 # H 
355 355 2 0.000000 -10.814000 -3.574000 0.004000 # H 
356 356 2 0.000000 -10.814000 -3.574000 8.490000 # H 
357 357 2 0.000000 -10.814000 -3.574000 -8.482000 # H 
358 358 2 0.000000 10.814000 3.574000 0.004000 # H 
359 359 2 0.000000 10.814000 3.574000 8.490000 # H 
360 360 2 0.000000 10.814000 3.574000 -8.482000 # H 
361 361 2 0.000000 7.384000 8.953000 -3.105000 # H 
362 362 2 0.000000 7.384000 8.953000 5.381000 # H 
363 363 2 0.000000 7.384000 8.953000 -11.591000 # H 
364 364 2 0.000000 -7.383000 -8.954000 -3.104000 # H 
365 365 2 0.000000 -7.383000 -8.954000 5.382000 # H 
366 366 2 0.000000 -7.383000 -8.954000 -11.590000 # H 
367 367 2 0.000000 -8.930000 7.638000 -3.021000 # H 
368 368 2 0.000000 -8.930000 7.638000 5.465000 # H 
369 369 2 0.000000 -8.930000 7.638000 -11.507000 # H 
370 370 2 0.000000 8.925000 -7.623000 -3.038000 # H 
371 371 2 0.000000 8.925000 -7.623000 5.448000 # H 
372 372 2 0.000000 8.925000 -7.623000 -11.524000 # H 
373 373 2 0.000000 -7.383000 -8.950000 3.109000 # H 
374 374 2 0.000000 -7.383000 -8.950000 11.595000 # H 
375 375 2 0.000000 -7.383000 -8.950000 -5.377000 # H 
376 376 2 0.000000 7.382000 8.951000 3.108000 # H 
377 377 2 0.000000 7.382000 8.951000 11.594000 # H 
378 378 2 0.000000 7.382000 8.951000 -5.378000 # H 
379 379 2 0.000000 8.928000 -7.633000 3.029000 # H 
380 380 2 0.000000 8.928000 -7.633000 11.515000 # H 
381 381 2 0.000000 8.928000 -7.633000 -5.457000 # H 
382 382 2 0.000000 -8.924000 7.618000 3.045000 # H 
383 383 2 0.000000 -8.924000 7.618000 11.531000 # H 
384 384 2 0.000000 -8.924000 7.618000 -5.441000 # H 
385 385 2 0.000000 -0.497000 6.311000 4.259000 # H 
386 386 2 0.000000 -0.497000 6.311000 12.745000 # H 
387 387 2 0.000000 -0.497000 6.311000 -4.227000 # H 
388 388 2 0.000000 0.497000 -6.311000 4.227000 # H 
389 389 2 0.000000 0.497000 -6.311000 12.713000 # H 
390 390 2 0.000000 0.497000 -6.311000 -4.259000 # H 
391 391 2 0.000000 -6.155000 -0.324000 4.277000 # H 
392 392 2 0.000000 -6.155000 -0.324000 12.763000 # H 
393 393 2 0.000000 -6.155000 -0.324000 -4.209000 # H 
394 394 2 0.000000 6.155000 0.323000 4.278000 # H 
395 395 2 0.000000 6.155000 0.323000 12.764000 # H 
396 396 2 0.000000 6.155000 0.323000 -4.208000 # H 
397 397 2 0.000000 -5.957000 9.358000 4.250000 # H 
398 398 2 0.000000 -5.957000 9.358000 12.736000 # H 
399 399 2 0.000000 -5.957000 9.358000 -4.236000 # H 
400 400 2 0.000000 5.957000 -9.358000 4.238000 # H 
401 401 2 0.000000 5.957000 -9.358000 12.724000 # H 
402 402 2 0.000000 5.957000 -9.358000 -4.248000 # H 
403 403 2 0.000000 -9.515000 -6.361000 4.247000 # H 
404 404 2 0.000000 -9.515000 -6.361000 12.733000 # H 
405 405 2 0.000000 -9.515000 -6.361000 -4.239000 # H 
406 406 2 0.000000 9.516000 6.361000 4.248000 # H 
407 407 2 0.000000 9.516000 6.361000 12.734000 # H 
408 408 2 0.000000 9.516000 6.361000 -4.238000 # H 
409 409 2 0.000000 4.857000 10.491000 1.114000 # H 
410 410 2 0.000000 4.857000 10.491000 9.600000 # H 
411 411 2 0.000000 4.857000 10.491000 -7.372000 # H 
412 412 2 0.000000 -4.860000 -10.490000 1.108000 # H 
413 413 2 0.000000 -4.860000 -10.490000 9.594000 # H 
414 414 2 0.000000 -4.860000 -10.490000 -7.378000 # H 
415 415 2 0.000000 -10.601000 4.906000 1.135000 # H 
416 416 2 0.000000 -10.601000 4.906000 9.621000 # H 
417 417 2 0.000000 -10.601000 4.906000 -7.351000 # H 
418 418 2 0.000000 10.621000 -4.920000 1.150000 # H 
419 419 2 0.000000 10.621000 -4.920000 9.636000 # H 
420 420 2 0.000000 10.621000 -4.920000 -7.336000 # H 
421 421 2 0.000000 -4.857000 -10.488000 -1.119000 # H 
422 422 2 0.000000 -4.857000 -10.488000 7.367000 # H 
423 423 2 0.000000 -4.857000 -10.488000 -9.605000 # H 
424 424 2 0.000000 4.859000 10.487000 -1.113000 # H 
425 425 2 0.000000 4.859000 10.487000 7.373000 # H 
426 426 2 0.000000 4.859000 10.487000 -9.599000 # H 
427 427 2 0.000000 10.595000 -4.906000 -1.125000 # H 
428 428 2 0.000000 10.595000 -4.906000 7.361000 # H 
429 429 2 0.000000 10.595000 -4.906000 -9.611000 # H 
430 430 2 0.000000 -10.616000 4.920000 -1.139000 # H 
431 431 2 0.000000 -10.616000 4.920000 7.347000 # H 
432 432 2 0.000000 -10.616000 4.920000 -9.625000 # H 
433 433 5 0.000000 6.440000 1.289000 -0.000000 # Oh 
434 434 5 0.000000 6.440000 1.289000 8.486000 # Oh 
435 435 5 0.000000 6.440000 1.289000 -8.486000 # Oh 
436 436 5 0.000000 -6.441000 -1.289000 -0.000000 # Oh 
437 437 5 0.000000 -6.441000 -1.289000 8.486000 # Oh 
438 438 5 0.000000 -6.441000 -1.289000 -8.486000 # Oh 
439 439 5 0.000000 -1.111000 6.521000 0.000000 # Oh 
440 440 5 0.000000 -1.111000 6.521000 8.486000 # Oh 
441 441 5 0.000000 -1.111000 6.521000 -8.486000 # Oh 
442 442 5 0.000000 1.110000 -6.521000 -0.000000 # Oh 
443 443 5 0.000000 1.110000 -6.521000 8.486000 # Oh 
444 444 5 0.000000 1.110000 -6.521000 -8.486000 # Oh 
445 445 4 0.000000 8.754000 0.020000 0.001000 # Obr 
446 446 4 0.000000 8.754000 0.020000 8.487000 # Obr 
447 447 4 0.000000 8.754000 0.020000 -8.485000 # Obr 
448 448 4 0.000000 -8.754000 -0.020000 0.001000 # Obr 
449 449 4 0.000000 -8.754000 -0.020000 8.487000 # Obr 
450 450 4 0.000000 -8.754000 -0.020000 -8.485000 # Obr 
451 451 4 0.000000 -0.034000 8.941000 0.001000 # Obr 
452 452 4 0.000000 -0.034000 8.941000 8.487000 # Obr 
453 453 4 0.000000 -0.034000 8.941000 -8.485000 # Obr 
454 454 4 0.000000 0.034000 -8.942000 -0.001000 # Obr 
455 455 4 0.000000 0.034000 -8.942000 8.485000 # Obr 
456 456 4 0.000000 0.034000 -8.942000 -8.487000 # Obr 
457 457 4 0.000000 8.579000 2.361000 1.354000 # Obr 
458 458 4 0.000000 8.579000 2.361000 9.840000 # Obr 
459 459 4 0.000000 8.579000 2.361000 -7.132000 # Obr 
460 460 4 0.000000 -8.580000 -2.360000 1.355000 # Obr 
461 461 4 0.000000 -8.580000 -2.360000 9.841000 # Obr 
462 462 4 0.000000 -8.580000 -2.360000 -7.131000 # Obr 
463 463 4 0.000000 -2.304000 8.612000 1.350000 # Obr 
464 464 4 0.000000 -2.304000 8.612000 9.836000 # Obr 
465 465 4 0.000000 -2.304000 8.612000 -7.136000 # Obr 
466 466 4 0.000000 2.304000 -8.613000 1.347000 # Obr 
467 467 4 0.000000 2.304000 -8.613000 9.833000 # Obr 
468 468 4 0.000000 2.304000 -8.613000 -7.139000 # Obr 
469 469 4 0.000000 -8.584000 -2.363000 -1.349000 # Obr 
470 470 4 0.000000 -8.584000 -2.363000 7.137000 # Obr 
471 471 4 0.000000 -8.584000 -2.363000 -9.835000 # Obr 
472 472 4 0.000000 8.583000 2.362000 -1.350000 # Obr 
473 473 4 0.000000 8.583000 2.362000 7.136000 # Obr 
474 474 4 0.000000 8.583000 2.362000 -9.836000 # Obr 
475 475 4 0.000000 2.304000 -8.612000 -1.351000 # Obr 
476 476 4 0.000000 2.304000 -8.612000 7.135000 # Obr 
477 477 4 0.000000 2.304000 -8.612000 -9.837000 # Obr 
478 478 4 0.000000 -2.303000 8.613000 -1.348000 # Obr 
479 479 4 0.000000 -2.303000 8.613000 7.138000 # Obr 
480 480 4 0.000000 -2.303000 8.613000 -9.834000 # Obr 
481 481 5 0.000000 10.191000 4.328000 0.003000 # Oh 
482 482 5 0.000000 10.191000 4.328000 8.489000 # Oh 
483 483 5 0.000000 10.191000 4.328000 -8.483000 # Oh 
484 484 5 0.000000 -10.190000 -4.328000 0.003000 # Oh 
485 485 5 0.000000 -10.190000 -4.328000 8.489000 # Oh 
486 486 5 0.000000 -10.190000 -4.328000 -8.483000 # Oh 
487 487 5 0.000000 -4.283000 10.121000 -0.000000 # Oh 
488 488 5 0.000000 -4.283000 10.121000 8.486000 # Oh 
489 489 5 0.000000 -4.283000 10.121000 -8.486000 # Oh 
490 490 5 0.000000 4.284000 -10.121000 -0.000000 # Oh 
491 491 5 0.000000 4.284000 -10.121000 8.486000 # Oh 
492 492 5 0.000000 4.284000 -10.121000 -8.486000 # Oh 
493 493 5 0.000000 10.771000 0.742000 1.696000 # Oh 
494 494 5 0.000000 10.771000 0.742000 10.182000 # Oh 
495 495 5 0.000000 10.771000 0.742000 -6.790000 # Oh 
496 496 5 0.000000 -10.771000 -0.741000 1.697000 # Oh 
497 497 5 0.000000 -10.771000 -0.741000 10.183000 # Oh 
498 498 5 0.000000 -10.771000 -0.741000 -6.789000 # Oh 
499 499 5 0.000000 -0.726000 10.967000 1.764000 # Oh 
500 500 5 0.000000 -0.726000 10.967000 10.250000 # Oh 
501 501 5 0.000000 -0.726000 10.967000 -6.722000 # Oh 
502 502 5 0.000000 0.729000 -10.973000 1.760000 # Oh 
503 503 5 0.000000 0.729000 -10.973000 10.246000 # Oh 
504 504 5 0.000000 0.729000 -10.973000 -6.726000 # Oh 
505 505 5 0.000000 -10.778000 -0.743000 -1.689000 # Oh 
506 506 5 0.000000 -10.778000 -0.743000 6.797000 # Oh 
507 507 5 0.000000 -10.778000 -0.743000 -10.175000 # Oh 
508 508 5 0.000000 10.777000 0.742000 -1.689000 # Oh 
509 509 5 0.000000 10.777000 0.742000 6.797000 # Oh 
510 510 5 0.000000 10.777000 0.742000 -10.175000 # Oh 
511 511 5 0.000000 0.726000 -10.967000 -1.765000 # Oh 
512 512 5 0.000000 0.726000 -10.967000 6.721000 # Oh 
513 513 5 0.000000 0.726000 -10.967000 -10.251000 # Oh 
514 514 5 0.000000 -0.729000 10.972000 -1.761000 # Oh 
515 515 5 0.000000 -0.729000 10.972000 6.725000 # Oh 
516 516 5 0.000000 -0.729000 10.972000 -10.247000 # Oh 
517 517 5 0.000000 5.963000 2.939000 4.273000 # Oh 
518 518 5 0.000000 5.963000 2.939000 12.759000 # Oh 
519 519 5 0.000000 5.963000 2.939000 -4.213000 # Oh 
520 520 5 0.000000 -5.963000 -2.939000 4.273000 # Oh 
521 521 5 0.000000 -5.963000 -2.939000 12.759000 # Oh 
522 522 5 0.000000 -5.963000 -2.939000 -4.213000 # Oh 
523 523 5 0.000000 -2.749000 5.944000 4.215000 # Oh 
524 524 5 0.000000 -2.749000 5.944000 12.701000 # Oh 
525 525 5 0.000000 -2.749000 5.944000 -4.271000 # Oh 
526 526 5 0.000000 2.749000 -5.944000 4.271000 # Oh 
527 527 5 0.000000 2.749000 -5.944000 12.757000 # Oh 
528 528 5 0.000000 2.749000 -5.944000 -4.215000 # Oh 
529 529 4 0.000000 8.541000 2.331000 4.254000 # Obr 
530 530 4 0.000000 8.541000 2.331000 12.740000 # Obr 
531 531 4 0.000000 8.541000 2.331000 -4.232000 # Obr 
532 532 4 0.000000 -8.541000 -2.331000 4.255000 # Obr 
533 533 4 0.000000 -8.541000 -2.331000 12.741000 # Obr 
534 534 4 0.000000 -8.541000 -2.331000 -4.231000 # Obr 
535 535 4 0.000000 -2.284000 8.542000 4.245000 # Obr 
536 536 4 0.000000 -2.284000 8.542000 12.731000 # Obr 
537 537 4 0.000000 -2.284000 8.542000 -4.241000 # Obr 
538 538 4 0.000000 2.284000 -8.542000 4.238000 # Obr 
539 539 4 0.000000 2.284000 -8.542000 12.724000 # Obr 
540 540 4 0.000000 2.284000 -8.542000 -4.248000 # Obr 
541 541 4 0.000000 7.789000 4.522000 -2.894000 # Obr 
542 542 4 0.000000 7.789000 4.522000 5.592000 # Obr 
543 543 4 0.000000 7.789000 4.522000 -11.380000 # Obr 
544 544 4 0.000000 -7.788000 -4.522000 -2.894000 # Obr 
545 545 4 0.000000 -7.788000 -4.522000 5.592000 # Obr 
546 546 4 0.000000 -7.788000 -4.522000 -11.380000 # Obr 
547 547 4 0.000000 -4.439000 7.649000 -2.906000 # Obr 
548 548 4 0.000000 -4.439000 7.649000 5.580000 # Obr 
549 549 4 0.000000 -4.439000 7.649000 -11.392000 # Obr 
550 550 4 0.000000 4.444000 -7.662000 -2.908000 # Obr 
551 551 4 0.000000 4.444000 -7.662000 5.578000 # Obr 