 # O576 Si288
 
         864  atoms
           2  atom types
 
      0.000000000000      27.350000000000  xlo xhi
      0.000000000000      23.685794793504  ylo yhi
      0.000000000000      29.534000000000  zlo zhi
    -13.675000000000       0.000000000000       0.000000000000  xy xz yz
 
Masses
 
            1   15.99900000             # O
            2   28.08500000             # Si
 
Atoms # atomic
 
         1    1       11.664775000000       1.160603944882       1.811910900000
         2    1       11.236063750000       3.672482482733       2.461658900000
         3    1        0.000683750000       2.848216823919       1.941860500000
         4    1       11.912976250000       3.051914659143       0.000000000000
         5    2       12.122887500000       2.681231970625       1.552011700000
         6    1        4.834112500000       5.104288778000       6.729321900000
         7    1        4.405401250000       7.616167315851       7.379069900000
         8    1        6.845021250000       6.791901657037       6.859271500000
         9    1        5.082313750000       6.995599492262       4.917411000000
        10    2        5.292225000000       6.624916803743       6.469422700000
        11    1       -2.017062500000       9.059816508515      11.661499900000
        12    1       -2.445773750000      11.571695046367      12.311247900000
        13    1       -0.006153750000      10.747429387553      11.791449500000
        14    1       -1.768861250000      10.951127222777       9.849589000000
        15    2       -1.558950000000      10.580444534258      11.401600700000
        16    1        6.837500000000       9.521689506989       1.811910900000
        17    1        4.876505000000       7.894475404675       2.461658900000
        18    1        4.370530000000      10.419381129663       1.941860500000
        19    1        5.075476250000       8.790982737609       0.000000000000
        20    2        5.291541250000       9.158112556908       1.552011700000
        21    1        6.837500000000       1.634319840752       6.729321900000
        22    1        4.876505000000       0.007105738438       7.379069900000
        23    1        4.370530000000       2.532011463426       6.859271500000
        24    1        5.075476250000       0.903613071372       4.917411000000
        25    2        5.291541250000       1.270742890672       6.469422700000
        26    1        0.000000000000       5.566161776474      11.661499900000
        27    1       -1.960995000000       3.938947674160      12.311247900000
        28    1       -2.466970000000       6.463853399147      11.791449500000
        29    1       -1.762023750000       4.835455007094       9.849589000000
        30    2       -1.545958750000       5.202584826393      11.401600700000
        31    1        8.854562500000       5.104288778000       6.729321900000
        32    1       -2.430731250000       4.219624342463       7.379069900000
        33    1        9.310623750000       2.518984276289       6.859271500000
        34    1       10.368385000000       3.943684833118       4.917411000000
        35    2        9.942408750000       3.947237702338       6.469422700000
        36    1        2.010225000000       9.047973611119      11.646732900000
        37    1        4.399931250000       8.163309175581      12.296480900000
        38    1        2.466286250000       6.462669109408      11.776682500000
        39    1        3.524047500000       7.887369666237       9.834822000000
        40    2        3.098071250000       7.890922535456      11.386833700000
        41    1        2.023900000000       1.160603944882       1.811910900000
        42    1        4.413606250000       0.275939509344       2.461658900000
        43    1       -4.357538750000      10.418196839923       1.941860500000
        44    1        3.537722500000       0.000000000000       0.000000000000
        45    2        3.111746250000       0.003552869219       1.552011700000
        46    1        9.275068750000       0.275939509344       2.461658900000
        47    1       10.150952500000       0.000000000000       0.000000000000
        48    2       10.576928750000       0.003552869219       1.552011700000
        49    1        2.444406250000       4.219624342463       7.379069900000
        50    1        3.320290000000       3.943684833118       4.917411000000
        51    2        3.746266250000       3.947237702338       6.469422700000
        52    1       -4.406768750000       8.175152072978      12.311247900000
        53    1       -3.530885000000       7.899212563634       9.849589000000
        54    2       -3.104908750000       7.902765432853      11.401600700000
        55    1        2.438936250000       3.672482482733       2.461658900000
        56    1        1.762023750000       3.051914659143       0.000000000000
        57    2        1.552112500000       2.681231970625       1.552011700000
        58    1        9.269598750000       7.616167315851       7.379069900000
        59    1        8.592686250000       6.995599492262       4.917411000000
        60    2        8.382775000000       6.624916803743       6.469422700000
        61    1        2.445773750000      11.571695046367      12.311247900000
        62    1        1.768861250000      10.951127222777       9.849589000000
        63    2        1.558950000000      10.580444534258      11.401600700000
        64    1        1.967832500000      11.838160237794       7.379069900000
        65    1        8.606361250000       0.891770173975       4.917411000000
        66    2        8.390296250000       1.258899993275       6.469422700000
        67    1        1.967832500000       3.950790571557      12.296480900000
        68    1        1.768861250000       4.847297904491       9.834822000000
        69    2        1.552796250000       5.214427723790      11.386833700000
        70    1        8.805332500000       7.882632507278       2.461658900000
        71    1        8.606361250000       8.779139840212       0.000000000000
        72    2        8.390296250000       9.146269659512       1.552011700000
        73    1       -4.827275000000      10.682293451870      12.955089100000
        74    1        6.836816250000       8.994680572833      12.825139500000
        75    2       -5.285387500000       9.161665426128      13.214988300000
        76    1        2.003387500000       6.738608618752       8.037678100000
        77    1       -0.007521250000       5.050995739715       7.907728500000
        78    2        1.545275000000       5.217980593009       8.297577300000
        79    1        8.854562500000       2.783080888237       3.105500100000
        80    1        6.843653750000       1.095468009200       2.975550500000
        81    2        8.396450000000       1.262452862494       3.365399300000
        82    1        0.000000000000       2.321207889763      12.955089100000
        83    1        2.466970000000       1.423516267090      12.825139500000
        84    2        1.545958750000       2.684784839844      13.214988300000
        85    1        0.000000000000      10.208577556000       8.037678100000
        86    1        2.466970000000       9.310885933327       7.907728500000
        87    2        1.545958750000      10.572154506081       8.297577300000
        88    1        6.837500000000       6.276735620279       3.105500100000
        89    1        9.304470000000       5.379043997605       2.975550500000
        90    2        8.383458750000       6.640312570359       3.365399300000
        91    1       -2.017062500000       6.738608618752       8.037678100000
        92    1       -2.473123750000       9.323913120463       7.907728500000
        93    2       -3.104908750000       7.895659694415       8.297577300000
        94    1        4.827275000000       2.794923785634       3.120267100000
        95    1        4.371213750000       5.380228287345       2.990317500000
        96    2        3.739428750000       3.951974861296       3.380166300000
        97    1        4.813600000000      10.682293451870      12.955089100000
        98    1       11.195038750000       1.424700556829      12.825139500000
        99    2        3.725753750000      11.839344527533      13.214988300000
       100    2       -3.739428750000      11.839344527533      13.214988300000
       101    2        3.091233750000       7.895659694415       8.297577300000
       102    2        9.942408750000       3.940131963899       3.365399300000
       103    2        5.285387500000       9.161665426128      13.214988300000
       104    2       -1.545275000000       5.217980593009       8.297577300000
       105    2        5.278550000000       1.262452862494       3.365399300000
       106    2       -1.552796250000      10.583997403477       8.297577300000
       107    2        5.284703750000       6.628469672962       3.380166300000
       108    2       -1.552796250000       2.696627737240      13.214988300000
       109    1       25.339775000000       1.160603944882       1.811910900000
       110    1       24.911063750000       3.672482482733       2.461658900000
       111    1       13.675683750000       2.848216823919       1.941860500000
       112    1       -1.762023750000       3.051914659143       0.000000000000
       113    2       25.797887500000       2.681231970625       1.552011700000
       114    1       18.509112500000       5.104288778000       6.729321900000
       115    1       18.080401250000       7.616167315851       7.379069900000
       116    1       20.520021250000       6.791901657037       6.859271500000
       117    1       18.757313750000       6.995599492262       4.917411000000
       118    2       18.967225000000       6.624916803743       6.469422700000
       119    1       11.657937500000       9.059816508515      11.661499900000
       120    1       11.229226250000      11.571695046367      12.311247900000
       121    1       13.668846250000      10.747429387553      11.791449500000
       122    1       11.906138750000      10.951127222777       9.849589000000
       123    2       12.116050000000      10.580444534258      11.401600700000
       124    1       20.512500000000       9.521689506989       1.811910900000
       125    1       18.551505000000       7.894475404675       2.461658900000
       126    1       18.045530000000      10.419381129663       1.941860500000
       127    1       18.750476250000       8.790982737609       0.000000000000
       128    2       18.966541250000       9.158112556908       1.552011700000
       129    1       20.512500000000       1.634319840752       6.729321900000
       130    1       18.551505000000       0.007105738438       7.379069900000
       131    1       18.045530000000       2.532011463426       6.859271500000
       132    1       18.750476250000       0.903613071372       4.917411000000
       133    2       18.966541250000       1.270742890672       6.469422700000
       134    1       13.675000000000       5.566161776474      11.661499900000
       135    1       11.714005000000       3.938947674160      12.311247900000
       136    1       11.208030000000       6.463853399147      11.791449500000
       137    1       11.912976250000       4.835455007094       9.849589000000
       138    2       12.129041250000       5.202584826393      11.401600700000
       139    1       22.529562500000       5.104288778000       6.729321900000
       140    1       11.244268750000       4.219624342463       7.379069900000
       141    1       22.985623750000       2.518984276289       6.859271500000
       142    1       24.043385000000       3.943684833118       4.917411000000
       143    2       23.617408750000       3.947237702338       6.469422700000
       144    1       15.685225000000       9.047973611119      11.646732900000
       145    1       18.074931250000       8.163309175581      12.296480900000
       146    1       16.141286250000       6.462669109408      11.776682500000
       147    1       17.199047500000       7.887369666237       9.834822000000
       148    2       16.773071250000       7.890922535456      11.386833700000
       149    1       15.698900000000       1.160603944882       1.811910900000
       150    1       18.088606250000       0.275939509344       2.461658900000
       151    1        9.317461250000      10.418196839923       1.941860500000
       152    1       17.212722500000       0.000000000000       0.000000000000
       153    2       16.786746250000       0.003552869219       1.552011700000
       154    1       22.950068750000       0.275939509344       2.461658900000
       155    1       23.825952500000       0.000000000000       0.000000000000
       156    2       24.251928750000       0.003552869219       1.552011700000
       157    1       16.119406250000       4.219624342463       7.379069900000
       158    1       16.995290000000       3.943684833118       4.917411000000
       159    2       17.421266250000       3.947237702338       6.469422700000
       160    1        9.268231250000       8.175152072978      12.311247900000
       161    1       10.144115000000       7.899212563634       9.849589000000
       162    2       10.570091250000       7.902765432853      11.401600700000
       163    1       16.113936250000       3.672482482733       2.461658900000
       164    1       15.437023750000       3.051914659143       0.000000000000
       165    2       15.227112500000       2.681231970625       1.552011700000
       166    1       22.944598750000       7.616167315851       7.379069900000
       167    1       22.267686250000       6.995599492262       4.917411000000
       168    2       22.057775000000       6.624916803743       6.469422700000
       169    1       16.120773750000      11.571695046367      12.311247900000
       170    1       15.443861250000      10.951127222777       9.849589000000
       171    2       15.233950000000      10.580444534258      11.401600700000
       172    1       15.642832500000      11.838160237793       7.379069900000
       173    1       22.281361250000       0.891770173975       4.917411000000
       174    2       22.065296250000       1.258899993275       6.469422700000
       175    1       15.642832500000       3.950790571557      12.296480900000
       176    1       15.443861250000       4.847297904491       9.834822000000
       177    2       15.227796250000       5.214427723790      11.386833700000
       178    1       22.480332500000       7.882632507278       2.461658900000
       179    1       -5.068638750000       8.779139840212       0.000000000000
       180    2       22.065296250000       9.146269659512       1.552011700000
       181    1        8.847725000000      10.682293451870      12.955089100000
       182    1       20.511816250000       8.994680572833      12.825139500000
       183    2        8.389612500000       9.161665426128      13.214988300000
       184    1       15.678387500000       6.738608618752       8.037678100000
       185    1       13.667478750000       5.050995739715       7.907728500000
       186    2       15.220275000000       5.217980593009       8.297577300000
       187    1       22.529562500000       2.783080888237       3.105500100000
       188    1       20.518653750000       1.095468009200       2.975550500000
       189    2       22.071450000000       1.262452862494       3.365399300000
       190    1       13.675000000000       2.321207889763      12.955089100000
       191    1       16.141970000000       1.423516267090      12.825139500000
       192    2       15.220958750000       2.684784839844      13.214988300000
       193    1       13.675000000000      10.208577556000       8.037678100000
       194    1       16.141970000000       9.310885933327       7.907728500000
       195    2       15.220958750000      10.572154506081       8.297577300000
       196    1       20.512500000000       6.276735620279       3.105500100000
       197    1       22.979470000000       5.379043997605       2.975550500000
       198    2       22.058458750000       6.640312570359       3.365399300000
       199    1       11.657937500000       6.738608618752       8.037678100000
       200    1       11.201876250000       9.323913120463       7.907728500000
       201    2       10.570091250000       7.895659694415       8.297577300000
       202    1       18.502275000000       2.794923785634       3.120267100000
       203    1       18.046213750000       5.380228287345       2.990317500000
       204    2       17.414428750000       3.951974861296       3.380166300000
       205    1       18.488600000000      10.682293451870      12.955089100000
       206    1       24.870038750000       1.424700556829      12.825139500000
       207    2       17.400753750000      11.839344527533      13.214988300000
       208    2        9.935571250000      11.839344527533      13.214988300000
       209    2       16.766233750000       7.895659694415       8.297577300000
       210    2       23.617408750000       3.940131963899       3.365399300000
       211    2       18.960387500000       9.161665426128      13.214988300000
       212    2       12.129725000000       5.217980593009       8.297577300000
       213    2       18.953550000000       1.262452862494       3.365399300000
       214    2       12.122203750000      10.583997403477       8.297577300000
       215    2       18.959703750000       6.628469672962       3.380166300000
       216    2       12.122203750000       2.696627737240      13.214988300000
       217    1        4.827275000000      13.003501341634       1.811910900000
       218    1        4.398563750000      15.515379879485       2.461658900000
       219    1       -6.836816250000      14.691114220671       1.941860500000
       220    1        5.075476250000      14.894812055895       0.000000000000
       221    2        5.285387500000      14.524129367377       1.552011700000
       222    1       -2.003387500000      16.947186174752       6.729321900000
       223    1       -2.432098750000      19.459064712604       7.379069900000
       224    1        0.007521250000      18.634799053790       6.859271500000
       225    1       -1.755186250000      18.838496889014       4.917411000000
       226    2       -1.545275000000      18.467814200495       6.469422700000
       227    1       -8.854562500000      20.902713905268      11.661499900000
       228    1       -9.283273750000      23.414592443119      12.311247900000
       229    1       -6.843653750000      22.590326784305      11.791449500000
       230    1       -8.606361250000      22.794024619529       9.849589000000
       231    2       -8.396450000000      22.423341931011      11.401600700000
       232    1        0.000000000000      21.364586903741       1.811910900000
       233    1       -1.960995000000      19.737372801427       2.461658900000
       234    1       -2.466970000000      22.262278526415       1.941860500000
       235    1       -1.762023750000      20.633880134361       0.000000000000
       236    2       -1.545958750000      21.001009953661       1.552011700000
       237    1        0.000000000000      13.477217237504       6.729321900000
       238    1       -1.960995000000      11.850003135190       7.379069900000
       239    1       -2.466970000000      14.374908860178       6.859271500000
       240    1       -1.762023750000      12.746510468124       4.917411000000
       241    2       -1.545958750000      13.113640287424       6.469422700000
       242    1       -6.837500000000      17.409059173226      11.661499900000
       243    1       -8.798495000000      15.781845070912      12.311247900000
       244    1       -9.304470000000      18.306750795900      11.791449500000
       245    1       -8.599523750000      16.678352403846       9.849589000000
       246    2       -8.383458750000      17.045482223145      11.401600700000
       247    1        2.017062500000      16.947186174752       6.729321900000
       248    1       -9.268231250000      16.062521739215       7.379069900000
       249    1        2.473123750000      14.361881673041       6.859271500000
       250    1        3.530885000000      15.786582229871       4.917411000000
       251    2        3.104908750000      15.790135099090       6.469422700000
       252    1       -4.827275000000      20.890871007871      11.646732900000
       253    1       -2.437568750000      20.006206572333      12.296480900000
       254    1       -4.371213750000      18.305566506160      11.776682500000
       255    1       -3.313452500000      19.730267062989       9.834822000000
       256    2       -3.739428750000      19.733819932208      11.386833700000
       257    1       -4.813600000000      13.003501341634       1.811910900000
       258    1       -2.423893750000      12.118836906097       2.461658900000
       259    1      -11.195038750000      22.261094236675       1.941860500000
       260    1       -3.299777500000      11.842897396752       0.000000000000
       261    2       -3.725753750000      11.846450265971       1.552011700000
       262    1        2.437568750000      12.118836906097       2.461658900000
       263    1        3.313452500000      11.842897396752       0.000000000000
       264    2        3.739428750000      11.846450265971       1.552011700000
       265    1       -4.393093750000      16.062521739215       7.379069900000
       266    1       -3.517210000000      15.786582229871       4.917411000000
       267    2       -3.091233750000      15.790135099090       6.469422700000
       268    1      -11.244268750000      20.018049469730      12.311247900000
       269    1      -10.368385000000      19.742109960386       9.849589000000
       270    2       -9.942408750000      19.745662829605      11.401600700000
       271    1       -4.398563750000      15.515379879485       2.461658900000
       272    1       -5.075476250000      14.894812055895       0.000000000000
       273    2       -5.285387500000      14.524129367377       1.552011700000
       274    1        2.432098750000      19.459064712604       7.379069900000
       275    1        1.755186250000      18.838496889014       4.917411000000
       276    2        1.545275000000      18.467814200495       6.469422700000
       277    1       -4.391726250000      23.414592443119      12.311247900000
       278    1       -5.068638750000      22.794024619529       9.849589000000
       279    2       -5.278550000000      22.423341931011      11.401600700000
       280    1       -4.869667500000      23.681057634546       7.379069900000
       281    1        1.768861250000      12.734667570728       4.917411000000
       282    2        1.552796250000      13.101797390027       6.469422700000
       283    1       -4.869667500000      15.793687968309      12.296480900000
       284    1       -5.068638750000      16.690195301243       9.834822000000
       285    2       -5.284703750000      17.057325120542      11.386833700000
       286    1        1.967832500000      19.725529904030       2.461658900000
       287    1        1.768861250000      20.622037236965       0.000000000000
       288    2        1.552796250000      20.989167056264       1.552011700000
       289    1      -11.664775000000      22.525190848623      12.955089100000
       290    1       -0.000683750000      20.837577969585      12.825139500000
       291    2      -12.122887500000      21.004562822880      13.214988300000
       292    1       -4.834112500000      18.581506015504       8.037678100000
       293    1       -6.845021250000      16.893893136467       7.907728500000
       294    2       -5.292225000000      17.060877989761       8.297577300000
       295    1        2.017062500000      14.625978284989       3.105500100000
       296    1        0.006153750000      12.938365405952       2.975550500000
       297    2        1.558950000000      13.105350259246       3.365399300000
       298    1       -6.837500000000      14.164105286516      12.955089100000
       299    1       -4.370530000000      13.266413663842      12.825139500000
       300    2       -5.291541250000      14.527682236596      13.214988300000
       301    1       -6.837500000000      22.051474952753       8.037678100000
       302    1       -4.370530000000      21.153783330079       7.907728500000
       303    2       -5.291541250000      22.415051902833       8.297577300000
       304    1        0.000000000000      18.119633017031       3.105500100000
       305    1        2.466970000000      17.221941394357       2.975550500000
       306    2        1.545958750000      18.483209967111       3.365399300000
       307    1       -8.854562500000      18.581506015504       8.037678100000
       308    1       -9.310623750000      21.166810517215       7.907728500000
       309    2       -9.942408750000      19.738557091167       8.297577300000
       310    1       -2.010225000000      14.637821182386       3.120267100000
       311    1       -2.466286250000      17.223125684097       2.990317500000
       312    2       -3.098071250000      15.794872258048       3.380166300000
       313    1       -2.023900000000      22.525190848623      12.955089100000
       314    1        4.357538750000      13.267597953581      12.825139500000
       315    2       -3.111746250000      23.682241924285      13.214988300000
       316    2      -10.576928750000      23.682241924285      13.214988300000
       317    2       -3.746266250000      19.738557091167       8.297577300000
       318    2        3.104908750000      15.783029360652       3.365399300000
       319    2       -1.552112500000      21.004562822880      13.214988300000
       320    2       -8.382775000000      17.060877989761       8.297577300000
       321    2       -1.558950000000      13.105350259246       3.365399300000
       322    2       -8.390296250000      22.426894800230       8.297577300000
       323    2       -1.552796250000      18.471367069714       3.380166300000
       324    2       -8.390296250000      14.539525133993      13.214988300000
       325    1       18.502275000000      13.003501341634       1.811910900000
       326    1       18.073563750000      15.515379879485       2.461658900000
       327    1        6.838183750000      14.691114220671       1.941860500000
       328    1       -8.599523750000      14.894812055895       0.000000000000
       329    2       18.960387500000      14.524129367377       1.552011700000
       330    1       11.671612500000      16.947186174752       6.729321900000
       331    1       11.242901250000      19.459064712604       7.379069900000
       332    1       13.682521250000      18.634799053790       6.859271500000
       333    1       11.919813750000      18.838496889014       4.917411000000
       334    2       12.129725000000      18.467814200495       6.469422700000
       335    1        4.820437500000      20.902713905268      11.661499900000
       336    1        4.391726250000      23.414592443119      12.311247900000
       337    1        6.831346250000      22.590326784305      11.791449500000
       338    1        5.068638750000      22.794024619529       9.849589000000
       339    2        5.278550000000      22.423341931011      11.401600700000
       340    1       13.675000000000      21.364586903741       1.811910900000
       341    1       11.714005000000      19.737372801427       2.461658900000
       342    1       11.208030000000      22.262278526415       1.941860500000
       343    1       11.912976250000      20.633880134361       0.000000000000
       344    2       12.129041250000      21.001009953661       1.552011700000
       345    1       13.675000000000      13.477217237504       6.729321900000
       346    1       11.714005000000      11.850003135190       7.379069900000
       347    1       11.208030000000      14.374908860178       6.859271500000
       348    1       11.912976250000      12.746510468124       4.917411000000
       349    2       12.129041250000      13.113640287424       6.469422700000
       350    1        6.837500000000      17.409059173226      11.661499900000
       351    1        4.876505000000      15.781845070912      12.311247900000
       352    1        4.370530000000      18.306750795900      11.791449500000
       353    1        5.075476250000      16.678352403846       9.849589000000
       354    2        5.291541250000      17.045482223145      11.401600700000
       355    1       15.692062500000      16.947186174752       6.729321900000
       356    1        4.406768750000      16.062521739215       7.379069900000
       357    1       16.148123750000      14.361881673041       6.859271500000
       358    1       17.205885000000      15.786582229871       4.917411000000
       359    2       16.779908750000      15.790135099090       6.469422700000
       360    1        8.847725000000      20.890871007871      11.646732900000
       361    1       11.237431250000      20.006206572333      12.296480900000
       362    1        9.303786250000      18.305566506160      11.776682500000
       363    1       10.361547500000      19.730267062989       9.834822000000
       364    2        9.935571250000      19.733819932208      11.386833700000
       365    1        8.861400000000      13.003501341634       1.811910900000
       366    1       11.251106250000      12.118836906097       2.461658900000
       367    1        2.479961250000      22.261094236675       1.941860500000
       368    1       10.375222500000      11.842897396752       0.000000000000
       369    2        9.949246250000      11.846450265971       1.552011700000