 #  O3072 Si1536
 
        4608  atoms
           2  atom types
 
      0.000000000000      48.690000000000  xlo xhi
      0.000000000000      48.690000000000  ylo yhi
      0.000000000000      48.690000000000  zlo zhi
 
Masses
 
            1   15.99900000             # O
            2   28.08500000             # Si
 
Atoms # atomic
 
         1    1       21.808251000000       2.536749000000       0.000000000000
         2    1       23.539180500000       1.855089000000       1.855089000000
         3    1       24.262227000000       3.478900500000      24.262227000000
         4    1       22.599463500000       4.309065000000       1.777185000000
         5    2       23.052280500000       3.045559500000       0.886158000000
         6    1       21.808251000000      14.709249000000      12.172500000000
         7    1       23.539180500000      14.027589000000      14.027589000000
         8    1       24.262227000000      15.651400500000      12.089727000000
         9    1       22.599463500000      16.481565000000      13.949685000000
        10    2       23.052280500000      15.218059500000      13.058658000000
        11    1        9.635751000000      14.709249000000       0.000000000000
        12    1       11.366680500000      14.027589000000       1.855089000000
        13    1       12.089727000000      15.651400500000      24.262227000000
        14    1       10.426963500000      16.481565000000       1.777185000000
        15    2       10.879780500000      15.218059500000       0.886158000000
        16    1        9.635751000000       2.536749000000      12.172500000000
        17    1       11.366680500000       1.855089000000      14.027589000000
        18    1       12.089727000000       3.478900500000      12.089727000000
        19    1       10.426963500000       4.309065000000      13.949685000000
        20    2       10.879780500000       3.045559500000      13.058658000000
        21    1        0.000000000000      21.808251000000       2.536749000000
        22    1        1.855089000000      23.539180500000       1.855089000000
        23    1       24.262227000000      24.262227000000       3.478900500000
        24    1        1.777185000000      22.599463500000       4.309065000000
        25    2        0.886158000000      23.052280500000       3.045559500000
        26    1       12.172500000000      21.808251000000      14.709249000000
        27    1       14.027589000000      23.539180500000      14.027589000000
        28    1       12.089727000000      24.262227000000      15.651400500000
        29    1       13.949685000000      22.599463500000      16.481565000000
        30    2       13.058658000000      23.052280500000      15.218059500000
        31    1        0.000000000000       9.635751000000      14.709249000000
        32    1        1.855089000000      11.366680500000      14.027589000000
        33    1       24.262227000000      12.089727000000      15.651400500000
        34    1        1.777185000000      10.426963500000      16.481565000000
        35    2        0.886158000000      10.879780500000      15.218059500000
        36    1       12.172500000000       9.635751000000       2.536749000000
        37    1       14.027589000000      11.366680500000       1.855089000000
        38    1       12.089727000000      12.089727000000       3.478900500000
        39    1       13.949685000000      10.426963500000       4.309065000000
        40    2       13.058658000000      10.879780500000       3.045559500000
        41    1        2.536749000000      12.172500000000       9.635751000000
        42    1        1.855089000000      14.027589000000      11.366680500000
        43    1        3.478900500000      12.089727000000      12.089727000000
        44    1        4.309065000000      13.949685000000      10.426963500000
        45    2        3.045559500000      13.058658000000      10.879780500000
        46    1       14.709249000000       0.000000000000       9.635751000000
        47    1       14.027589000000       1.855089000000      11.366680500000
        48    1       15.651400500000      24.262227000000      12.089727000000
        49    1       16.481565000000       1.777185000000      10.426963500000
        50    2       15.218059500000       0.886158000000      10.879780500000
        51    1       14.709249000000      12.172500000000      21.808251000000
        52    1       14.027589000000      14.027589000000      23.539180500000
        53    1       15.651400500000      12.089727000000      24.262227000000
        54    1       16.481565000000      13.949685000000      22.599463500000
        55    2       15.218059500000      13.058658000000      23.052280500000
        56    1        2.536749000000       0.000000000000      21.808251000000
        57    1        1.855089000000       1.855089000000      23.539180500000
        58    1        3.478900500000      24.262227000000      24.262227000000
        59    1        4.309065000000       1.777185000000      22.599463500000
        60    2        3.045559500000       0.886158000000      23.052280500000
        61    1        2.536749000000       8.622999000000       6.086250000000
        62    1        0.805819500000       7.941339000000       7.941339000000
        63    1        0.082773000000       9.565150500000       6.003477000000
        64    1        1.745536500000      10.395315000000       7.863435000000
        65    2        1.292719500000       9.131809500000       6.972408000000
        66    1        2.536749000000      20.795499000000      18.258750000000
        67    1        0.805819500000      20.113839000000      20.113839000000
        68    1        0.082773000000      21.737650500000      18.175977000000
        69    1        1.745536500000      22.567815000000      20.035935000000
        70    2        1.292719500000      21.304309500000      19.144908000000
        71    1       14.709249000000      20.795499000000       6.086250000000
        72    1       12.978319500000      20.113839000000       7.941339000000
        73    1       12.255273000000      21.737650500000       6.003477000000
        74    1       13.918036500000      22.567815000000       7.863435000000
        75    2       13.465219500000      21.304309500000       6.972408000000
        76    1       14.709249000000       8.622999000000      18.258750000000
        77    1       12.978319500000       7.941339000000      20.113839000000
        78    1       12.255273000000       9.565150500000      18.175977000000
        79    1       13.918036500000      10.395315000000      20.035935000000
        80    2       13.465219500000       9.131809500000      19.144908000000
        81    1        0.000000000000       3.549501000000       8.622999000000
        82    1       22.489911000000       5.280430500000       7.941339000000
        83    1        0.082773000000       6.003477000000       9.565150500000
        84    1       22.567815000000       4.340713500000      10.395315000000
        85    2       23.458842000000       4.793530500000       9.131809500000
        86    1       12.172500000000       3.549501000000      20.795499000000
        87    1       10.317411000000       5.280430500000      20.113839000000
        88    1       12.255273000000       6.003477000000      21.737650500000
        89    1       10.395315000000       4.340713500000      22.567815000000
        90    2       11.286342000000       4.793530500000      21.304309500000
        91    1        0.000000000000      15.722001000000      20.795499000000
        92    1       22.489911000000      17.452930500000      20.113839000000
        93    1        0.082773000000      18.175977000000      21.737650500000
        94    1       22.567815000000      16.513213500000      22.567815000000
        95    2       23.458842000000      16.966030500000      21.304309500000
        96    1       12.172500000000      15.722001000000       8.622999000000
        97    1       10.317411000000      17.452930500000       7.941339000000
        98    1       12.255273000000      18.175977000000       9.565150500000
        99    1       10.395315000000      16.513213500000      10.395315000000
       100    2       11.286342000000      16.966030500000       9.131809500000
       101    1       21.808251000000      18.258750000000      15.722001000000
       102    1       22.489911000000      20.113839000000      17.452930500000
       103    1       20.866099500000      18.175977000000      18.175977000000
       104    1       20.035935000000      20.035935000000      16.513213500000
       105    2       21.299440500000      19.144908000000      16.966030500000
       106    1        9.635751000000       6.086250000000      15.722001000000
       107    1       10.317411000000       7.941339000000      17.452930500000
       108    1        8.693599500000       6.003477000000      18.175977000000
       109    1        7.863435000000       7.863435000000      16.513213500000
       110    2        9.126940500000       6.972408000000      16.966030500000
       111    1        9.635751000000      18.258750000000       3.549501000000
       112    1       10.317411000000      20.113839000000       5.280430500000
       113    1        8.693599500000      18.175977000000       6.003477000000
       114    1        7.863435000000      20.035935000000       4.340713500000
       115    2        9.126940500000      19.144908000000       4.793530500000
       116    1       21.808251000000       6.086250000000       3.549501000000
       117    1       22.489911000000       7.941339000000       5.280430500000
       118    1       20.866099500000       6.003477000000       6.003477000000
       119    1       20.035935000000       7.863435000000       4.340713500000
       120    2       21.299440500000       6.972408000000       4.793530500000
       121    1       18.258750000000       8.622999000000      14.709249000000
       122    1       16.403661000000       6.892069500000      14.027589000000
       123    1       18.341523000000       6.169023000000      15.651400500000
       124    1       16.481565000000       7.831786500000      16.481565000000
       125    2       17.372592000000       7.378969500000      15.218059500000
       126    1        6.086250000000       8.622999000000       2.536749000000
       127    1        4.231161000000       6.892069500000       1.855089000000
       128    1        6.169023000000       6.169023000000       3.478900500000
       129    1        4.309065000000       7.831786500000       4.309065000000
       130    2        5.200092000000       7.378969500000       3.045559500000
       131    1       18.258750000000      20.795499000000       2.536749000000
       132    1       16.403661000000      19.064569500000       1.855089000000
       133    1       18.341523000000      18.341523000000       3.478900500000
       134    1       16.481565000000      20.004286500000       4.309065000000
       135    2       17.372592000000      19.551469500000       3.045559500000
       136    1        6.086250000000      20.795499000000      14.709249000000
       137    1        4.231161000000      19.064569500000      14.027589000000
       138    1        6.169023000000      18.341523000000      15.651400500000
       139    1        4.309065000000      20.004286500000      16.481565000000
       140    2        5.200092000000      19.551469500000      15.218059500000
       141    1       15.722001000000       6.086250000000       9.635751000000
       142    1       16.403661000000       4.231161000000      11.366680500000
       143    1       14.779849500000       6.169023000000      12.089727000000
       144    1       13.949685000000       4.309065000000      10.426963500000
       145    2       15.213190500000       5.200092000000      10.879780500000
       146    1        3.549501000000      18.258750000000       9.635751000000
       147    1        4.231161000000      16.403661000000      11.366680500000
       148    1        2.607349500000      18.341523000000      12.089727000000
       149    1        1.777185000000      16.481565000000      10.426963500000
       150    2        3.040690500000      17.372592000000      10.879780500000
       151    1        3.549501000000       6.086250000000      21.808251000000
       152    1        4.231161000000       4.231161000000      23.539180500000
       153    1        2.607349500000       6.169023000000      24.262227000000
       154    1        1.777185000000       4.309065000000      22.599463500000
       155    2        3.040690500000       5.200092000000      23.052280500000
       156    1       15.722001000000      18.258750000000      21.808251000000
       157    1       16.403661000000      16.403661000000      23.539180500000
       158    1       14.779849500000      18.341523000000      24.262227000000
       159    1       13.949685000000      16.481565000000      22.599463500000
       160    2       15.213190500000      17.372592000000      23.052280500000
       161    1        8.622999000000       3.549501000000       0.000000000000
       162    1        6.892069500000       4.231161000000       1.855089000000
       163    1        6.169023000000       2.607349500000      24.262227000000
       164    1        7.831786500000       1.777185000000       1.777185000000
       165    2        7.378969500000       3.040690500000       0.886158000000
       166    1        8.622999000000      15.722001000000      12.172500000000
       167    1        6.892069500000      16.403661000000      14.027589000000
       168    1        6.169023000000      14.779849500000      12.089727000000
       169    1        7.831786500000      13.949685000000      13.949685000000
       170    2        7.378969500000      15.213190500000      13.058658000000
       171    1       20.795499000000      15.722001000000       0.000000000000
       172    1       19.064569500000      16.403661000000       1.855089000000
       173    1       18.341523000000      14.779849500000      24.262227000000
       174    1       20.004286500000      13.949685000000       1.777185000000
       175    2       19.551469500000      15.213190500000       0.886158000000
       176    1       20.795499000000       3.549501000000      12.172500000000
       177    1       19.064569500000       4.231161000000      14.027589000000
       178    1       18.341523000000       2.607349500000      12.089727000000
       179    1       20.004286500000       1.777185000000      13.949685000000
       180    2       19.551469500000       3.040690500000      13.058658000000
       181    1        9.635751000000      12.172500000000       2.536749000000
       182    1       10.317411000000      10.317411000000       0.805819500000
       183    1        8.693599500000      12.255273000000       0.082773000000
       184    1        7.863435000000      10.395315000000       1.745536500000
       185    2        9.126940500000      11.286342000000       1.292719500000
       186    1       21.808251000000       0.000000000000       2.536749000000
       187    1       22.489911000000      22.489911000000       0.805819500000
       188    1       20.866099500000       0.082773000000       0.082773000000
       189    1       20.035935000000      22.567815000000       1.745536500000
       190    2       21.299440500000      23.458842000000       1.292719500000
       191    1       21.808251000000      12.172500000000      14.709249000000
       192    1       22.489911000000      10.317411000000      12.978319500000
       193    1       20.866099500000      12.255273000000      12.255273000000
       194    1       20.035935000000      10.395315000000      13.918036500000
       195    2       21.299440500000      11.286342000000      13.465219500000
       196    1        9.635751000000       0.000000000000      14.709249000000
       197    1       10.317411000000      22.489911000000      12.978319500000
       198    1        8.693599500000       0.082773000000      12.255273000000
       199    1        7.863435000000      22.567815000000      13.918036500000
       200    2        9.126940500000      23.458842000000      13.465219500000
       201    1       14.709249000000       9.635751000000       0.000000000000
       202    1       12.978319500000      10.317411000000      22.489911000000
       203    1       12.255273000000       8.693599500000       0.082773000000
       204    1       13.918036500000       7.863435000000      22.567815000000
       205    2       13.465219500000       9.126940500000      23.458842000000
       206    1       14.709249000000      21.808251000000      12.172500000000
       207    1       12.978319500000      22.489911000000      10.317411000000
       208    1       12.255273000000      20.866099500000      12.255273000000
       209    1       13.918036500000      20.035935000000      10.395315000000
       210    2       13.465219500000      21.299440500000      11.286342000000
       211    1        2.536749000000      21.808251000000       0.000000000000
       212    1        0.805819500000      22.489911000000      22.489911000000
       213    1        0.082773000000      20.866099500000       0.082773000000
       214    1        1.745536500000      20.035935000000      22.567815000000
       215    2        1.292719500000      21.299440500000      23.458842000000
       216    1        2.536749000000       9.635751000000      12.172500000000
       217    1        0.805819500000      10.317411000000      10.317411000000
       218    1        0.082773000000       8.693599500000      12.255273000000
       219    1        1.745536500000       7.863435000000      10.395315000000
       220    2        1.292719500000       9.126940500000      11.286342000000
       221    1        0.000000000000       2.536749000000      21.808251000000
       222    1       22.489911000000       0.805819500000      22.489911000000
       223    1        0.082773000000       0.082773000000      20.866099500000
       224    1       22.567815000000       1.745536500000      20.035935000000
       225    2       23.458842000000       1.292719500000      21.299440500000
       226    1       12.172500000000       2.536749000000       9.635751000000
       227    1       10.317411000000       0.805819500000      10.317411000000
       228    1       12.255273000000       0.082773000000       8.693599500000
       229    1       10.395315000000       1.745536500000       7.863435000000
       230    2       11.286342000000       1.292719500000       9.126940500000
       231    1        0.000000000000      14.709249000000       9.635751000000
       232    1       22.489911000000      12.978319500000      10.317411000000
       233    1        0.082773000000      12.255273000000       8.693599500000
       234    1       22.567815000000      13.918036500000       7.863435000000
       235    2       23.458842000000      13.465219500000       9.126940500000
       236    1       12.172500000000      14.709249000000      21.808251000000
       237    1       10.317411000000      12.978319500000      22.489911000000
       238    1       12.255273000000      12.255273000000      20.866099500000
       239    1       10.395315000000      13.918036500000      20.035935000000
       240    2       11.286342000000      13.465219500000      21.299440500000
       241    1        9.635751000000       3.549501000000      18.258750000000
       242    1       11.366680500000       4.231161000000      16.403661000000
       243    1       12.089727000000       2.607349500000      18.341523000000
       244    1       10.426963500000       1.777185000000      16.481565000000
       245    2       10.879780500000       3.040690500000      17.372592000000
       246    1        9.635751000000      15.722001000000       6.086250000000
       247    1       11.366680500000      16.403661000000       4.231161000000
       248    1       12.089727000000      14.779849500000       6.169023000000
       249    1       10.426963500000      13.949685000000       4.309065000000
       250    2       10.879780500000      15.213190500000       5.200092000000
       251    1       21.808251000000      15.722001000000      18.258750000000
       252    1       23.539180500000      16.403661000000      16.403661000000
       253    1       24.262227000000      14.779849500000      18.341523000000
       254    1       22.599463500000      13.949685000000      16.481565000000
       255    2       23.052280500000      15.213190500000      17.372592000000
       256    1       21.808251000000       3.549501000000       6.086250000000
       257    1       23.539180500000       4.231161000000       4.231161000000
       258    1       24.262227000000       2.607349500000       6.169023000000
       259    1       22.599463500000       1.777185000000       4.309065000000
       260    2       23.052280500000       3.040690500000       5.200092000000
       261    1       12.172500000000       8.622999000000      15.722001000000
       262    1       14.027589000000       6.892069500000      16.403661000000
       263    1       12.089727000000       6.169023000000      14.779849500000
       264    1       13.949685000000       7.831786500000      13.949685000000
       265    2       13.058658000000       7.378969500000      15.213190500000
       266    1        0.000000000000       8.622999000000       3.549501000000
       267    1        1.855089000000       6.892069500000       4.231161000000
       268    1       24.262227000000       6.169023000000       2.607349500000
       269    1        1.777185000000       7.831786500000       1.777185000000
       270    2        0.886158000000       7.378969500000       3.040690500000
       271    1       12.172500000000      20.795499000000       3.549501000000
       272    1       14.027589000000      19.064569500000       4.231161000000
       273    1       12.089727000000      18.341523000000       2.607349500000
       274    1       13.949685000000      20.004286500000       1.777185000000
       275    2       13.058658000000      19.551469500000       3.040690500000
       276    1        0.000000000000      20.795499000000      15.722001000000
       277    1        1.855089000000      19.064569500000      16.403661000000
       278    1       24.262227000000      18.341523000000      14.779849500000
       279    1        1.777185000000      20.004286500000      13.949685000000
       280    2        0.886158000000      19.551469500000      15.213190500000
       281    1       14.709249000000      18.258750000000       8.622999000000
       282    1       14.027589000000      16.403661000000       6.892069500000
       283    1       15.651400500000      18.341523000000       6.169023000000
       284    1       16.481565000000      16.481565000000       7.831786500000
       285    2       15.218059500000      17.372592000000       7.378969500000
       286    1        2.536749000000       6.086250000000       8.622999000000
       287    1        1.855089000000       4.231161000000       6.892069500000
       288    1        3.478900500000       6.169023000000       6.169023000000
       289    1        4.309065000000       4.309065000000       7.831786500000
       290    2        3.045559500000       5.200092000000       7.378969500000
       291    1        2.536749000000      18.258750000000      20.795499000000
       292    1        1.855089000000      16.403661000000      19.064569500000
       293    1        3.478900500000      18.341523000000      18.341523000000
       294    1        4.309065000000      16.481565000000      20.004286500000
       295    2        3.045559500000      17.372592000000      19.551469500000
       296    1       14.709249000000       6.086250000000      20.795499000000
       297    1       14.027589000000       4.231161000000      19.064569500000
       298    1       15.651400500000       6.169023000000      18.341523000000
       299    1       16.481565000000       4.309065000000      20.004286500000
       300    2       15.218059500000       5.200092000000      19.551469500000
       301    1       18.258750000000      15.722001000000      21.808251000000
       302    1       20.113839000000      17.452930500000      22.489911000000
       303    1       18.175977000000      18.175977000000      20.866099500000
       304    1       20.035935000000      16.513213500000      20.035935000000
       305    2       19.144908000000      16.966030500000      21.299440500000
       306    1        6.086250000000      15.722001000000       9.635751000000
       307    1        7.941339000000      17.452930500000      10.317411000000
       308    1        6.003477000000      18.175977000000       8.693599500000
       309    1        7.863435000000      16.513213500000       7.863435000000
       310    2        6.972408000000      16.966030500000       9.126940500000
       311    1       18.258750000000       3.549501000000       9.635751000000
       312    1       20.113839000000       5.280430500000      10.317411000000
       313    1       18.175977000000       6.003477000000       8.693599500000
       314    1       20.035935000000       4.340713500000       7.863435000000
       315    2       19.144908000000       4.793530500000       9.126940500000
       316    1        6.086250000000       3.549501000000      21.808251000000
       317    1        7.941339000000       5.280430500000      22.489911000000
       318    1        6.003477000000       6.003477000000      20.866099500000
       319    1        7.863435000000       4.340713500000      20.035935000000
       320    2        6.972408000000       4.793530500000      21.299440500000
       321    1       20.795499000000      18.258750000000       2.536749000000
       322    1       20.113839000000      20.113839000000       0.805819500000
       323    1       21.737650500000      18.175977000000       0.082773000000
       324    1       22.567815000000      20.035935000000       1.745536500000
       325    2       21.304309500000      19.144908000000       1.292719500000
       326    1        8.622999000000       6.086250000000       2.536749000000
       327    1        7.941339000000       7.941339000000       0.805819500000
       328    1        9.565150500000       6.003477000000       0.082773000000
       329    1       10.395315000000       7.863435000000       1.745536500000
       330    2        9.131809500000       6.972408000000       1.292719500000
       331    1        8.622999000000      18.258750000000      14.709249000000
       332    1        7.941339000000      20.113839000000      12.978319500000
       333    1        9.565150500000      18.175977000000      12.255273000000
       334    1       10.395315000000      20.035935000000      13.918036500000
       335    2        9.131809500000      19.144908000000      13.465219500000
       336    1       20.795499000000       6.086250000000      14.709249000000
       337    1       20.113839000000       7.941339000000      12.978319500000
       338    1       21.737650500000       6.003477000000      12.255273000000
       339    1       22.567815000000       7.863435000000      13.918036500000
       340    2       21.304309500000       6.972408000000      13.465219500000
       341    1        3.549501000000      20.795499000000      12.172500000000
       342    1        5.280430500000      20.113839000000      10.317411000000
       343    1        6.003477000000      21.737650500000      12.255273000000
       344    1        4.340713500000      22.567815000000      10.395315000000
       345    2        4.793530500000      21.304309500000      11.286342000000
       346    1        3.549501000000       8.622999000000       0.000000000000
       347    1        5.280430500000       7.941339000000      22.489911000000
       348    1        6.003477000000       9.565150500000       0.082773000000
       349    1        4.340713500000      10.395315000000      22.567815000000
       350    2        4.793530500000       9.131809500000      23.458842000000
       351    1       15.722001000000       8.622999000000      12.172500000000
       352    1       17.452930500000       7.941339000000      10.317411000000
       353    1       18.175977000000       9.565150500000      12.255273000000
       354    1       16.513213500000      10.395315000000      10.395315000000
       355    2       16.966030500000       9.131809500000      11.286342000000
       356    1       15.722001000000      20.795499000000       0.000000000000
       357    1       17.452930500000      20.113839000000      22.489911000000
       358    1       18.175977000000      21.737650500000       0.082773000000
       359    1       16.513213500000      22.567815000000      22.567815000000
       360    2       16.966030500000      21.304309500000      23.458842000000
       361    1       15.722001000000      12.172500000000       8.622999000000
       362    1       16.403661000000      14.027589000000       6.892069500000
       363    1       14.779849500000      12.089727000000       6.169023000000
       364    1       13.949685000000      13.949685000000       7.831786500000
       365    2       15.213190500000      13.058658000000       7.378969500000
       366    1        3.549501000000       0.000000000000       8.622999000000
       367    1        4.231161000000       1.855089000000       6.892069500000
       368    1        2.607349500000      24.262227000000       6.169023000000
       369    1        1.777185000000       1.777185000000       7.831786500000
       370    2        3.040690500000       0.886158000000       7.378969500000