 # O384 Si192
 
         576  atoms
           2  atom types
 
      0.000000000000      23.838000000000  xlo xhi
      0.000000000000      23.838000000000  ylo yhi
      0.000000000000      23.838000000000  zlo zhi
 
Masses
 
            1   15.99900000             # O
            2   28.08500000             # Si
 
Atoms # atomic
 
         1    1       11.919000000000       2.529211800000       5.959500000000
         2    1        1.314665700000       1.314665700000       4.033389600000
         3    1       23.838000000000       3.536367300000       3.536367300000
         4    2       23.838000000000       2.172833700000       4.390959600000
         5    1        5.959500000000      23.838000000000       2.529211800000
         6    1        4.033389600000       1.314665700000       1.314665700000
         7    1        3.536367300000      23.838000000000       3.536367300000
         8    2        4.390959600000      23.838000000000       2.172833700000
         9    1        2.529211800000       5.959500000000       0.000000000000
        10    1        1.314665700000       4.033389600000       1.314665700000
        11    1        3.536367300000       3.536367300000       0.000000000000
        12    2        2.172833700000       4.390959600000       0.000000000000
        13    1        1.314665700000       1.314665700000       7.885610400000
        14    1       23.838000000000       3.536367300000       8.382632700000
        15    2       23.838000000000       2.172833700000       7.528040400000
        16    1        5.959500000000      23.838000000000       9.389788200000
        17    1        4.033389600000       1.314665700000      10.604334300000
        18    1        3.536367300000      23.838000000000       8.382632700000
        19    2        4.390959600000      23.838000000000       9.746166300000
        20    1        1.314665700000       4.033389600000      10.604334300000
        21    1        7.885610400000       1.314665700000      10.604334300000
        22    1        8.382632700000      23.838000000000       8.382632700000
        23    2        7.528040400000      23.838000000000       9.746166300000
        24    1        9.389788200000       5.959500000000       0.000000000000
        25    1       10.604334300000       4.033389600000      10.604334300000
        26    1        8.382632700000       3.536367300000       0.000000000000
        27    2        9.746166300000       4.390959600000       0.000000000000
        28    1       10.604334300000       1.314665700000       7.885610400000
        29    1        1.314665700000       7.885610400000      10.604334300000
        30    1        3.536367300000       8.382632700000       0.000000000000
        31    2        2.172833700000       7.528040400000       0.000000000000
        32    1       23.838000000000       9.389788200000       5.959500000000
        33    1        1.314665700000      10.604334300000       7.885610400000
        34    1       23.838000000000       8.382632700000       8.382632700000
        35    2       23.838000000000       9.746166300000       7.528040400000
        36    1        4.033389600000      10.604334300000      10.604334300000
        37    1        1.314665700000      10.604334300000       4.033389600000
        38    1       23.838000000000       8.382632700000       3.536367300000
        39    2       23.838000000000       9.746166300000       4.390959600000
        40    1        4.033389600000      10.604334300000       1.314665700000
        41    1        1.314665700000       7.885610400000       1.314665700000
        42    1       10.604334300000       1.314665700000       4.033389600000
        43    1        7.885610400000       1.314665700000       1.314665700000
        44    1        8.382632700000      23.838000000000       3.536367300000
        45    2        7.528040400000      23.838000000000       2.172833700000
        46    1       10.604334300000       4.033389600000       1.314665700000
        47    1       10.604334300000       7.885610400000      10.604334300000
        48    1        8.382632700000       8.382632700000       0.000000000000
        49    2        9.746166300000       7.528040400000       0.000000000000
        50    1       10.604334300000      10.604334300000       7.885610400000
        51    1        7.885610400000      10.604334300000      10.604334300000
        52    1       10.604334300000      10.604334300000       4.033389600000
        53    1        7.885610400000      10.604334300000       1.314665700000
        54    1       10.604334300000       7.885610400000       1.314665700000
        55    1        2.529211800000      23.838000000000       5.959500000000
        56    2        2.172833700000      23.838000000000       4.390959600000
        57    1        0.000000000000       5.959500000000       2.529211800000
        58    2       23.838000000000       4.390959600000       2.172833700000
        59    1        5.959500000000       2.529211800000       0.000000000000
        60    2        4.390959600000       2.172833700000       0.000000000000
        61    2        2.172833700000       0.000000000000       7.528040400000
        62    1       23.838000000000       5.959500000000       9.389788200000
        63    2       23.838000000000       4.390959600000       9.746166300000
        64    2       23.838000000000       7.528040400000       9.746166300000
        65    1        5.959500000000       9.389788200000       0.000000000000
        66    2        4.390959600000       9.746166300000       0.000000000000
        67    2        7.528040400000       2.172833700000       0.000000000000
        68    1        9.389788200000      23.838000000000       5.959500000000
        69    2        9.746166300000       0.000000000000       7.528040400000
        70    2        9.746166300000      23.838000000000       4.390959600000
        71    2       23.838000000000       7.528040400000       2.172833700000
        72    2        7.528040400000       9.746166300000       0.000000000000
        73    1        0.000000000000       2.529211800000       5.959500000000
        74    1       13.233665700000       1.314665700000       4.033389600000
        75    1       11.919000000000       3.536367300000       3.536367300000
        76    2       11.919000000000       2.172833700000       4.390959600000
        77    1       17.878500000000      23.838000000000       2.529211800000
        78    1       15.952389600000       1.314665700000       1.314665700000
        79    1       15.455367300000       0.000000000000       3.536367300000
        80    2       16.309959600000       0.000000000000       2.172833700000
        81    1       14.448211800000       5.959500000000       0.000000000000
        82    1       13.233665700000       4.033389600000       1.314665700000
        83    1       15.455367300000       3.536367300000       0.000000000000
        84    2       14.091833700000       4.390959600000       0.000000000000
        85    1       13.233665700000       1.314665700000       7.885610400000
        86    1       11.919000000000       3.536367300000       8.382632700000
        87    2       11.919000000000       2.172833700000       7.528040400000
        88    1       17.878500000000      23.838000000000       9.389788200000
        89    1       15.952389600000       1.314665700000      10.604334300000
        90    1       15.455367300000       0.000000000000       8.382632700000
        91    2       16.309959600000      23.838000000000       9.746166300000
        92    1       13.233665700000       4.033389600000      10.604334300000
        93    1       19.804610400000       1.314665700000      10.604334300000
        94    1       20.301632700000       0.000000000000       8.382632700000
        95    2       19.447040400000      23.838000000000       9.746166300000
        96    1       21.308788200000       5.959500000000       0.000000000000
        97    1       22.523334300000       4.033389600000      10.604334300000
        98    1       20.301632700000       3.536367300000       0.000000000000
        99    2       21.665166300000       4.390959600000       0.000000000000
       100    1       22.523334300000       1.314665700000       7.885610400000
       101    1       13.233665700000       7.885610400000      10.604334300000
       102    1       15.455367300000       8.382632700000       0.000000000000
       103    2       14.091833700000       7.528040400000       0.000000000000
       104    1       11.919000000000       9.389788200000       5.959500000000
       105    1       13.233665700000      10.604334300000       7.885610400000
       106    1       11.919000000000       8.382632700000       8.382632700000
       107    2       11.919000000000       9.746166300000       7.528040400000
       108    1       15.952389600000      10.604334300000      10.604334300000
       109    1       13.233665700000      10.604334300000       4.033389600000
       110    1       11.919000000000       8.382632700000       3.536367300000
       111    2       11.919000000000       9.746166300000       4.390959600000
       112    1       15.952389600000      10.604334300000       1.314665700000
       113    1       13.233665700000       7.885610400000       1.314665700000
       114    1       22.523334300000       1.314665700000       4.033389600000
       115    1       19.804610400000       1.314665700000       1.314665700000
       116    1       20.301632700000       0.000000000000       3.536367300000
       117    2       19.447040400000       0.000000000000       2.172833700000
       118    1       22.523334300000       4.033389600000       1.314665700000
       119    1       22.523334300000       7.885610400000      10.604334300000
       120    1       20.301632700000       8.382632700000       0.000000000000
       121    2       21.665166300000       7.528040400000       0.000000000000
       122    1       22.523334300000      10.604334300000       7.885610400000
       123    1       19.804610400000      10.604334300000      10.604334300000
       124    1       22.523334300000      10.604334300000       4.033389600000
       125    1       19.804610400000      10.604334300000       1.314665700000
       126    1       22.523334300000       7.885610400000       1.314665700000
       127    1       14.448211800000       0.000000000000       5.959500000000
       128    2       14.091833700000      23.838000000000       4.390959600000
       129    1       11.919000000000       5.959500000000       2.529211800000
       130    2       11.919000000000       4.390959600000       2.172833700000
       131    1       17.878500000000       2.529211800000       0.000000000000
       132    2       16.309959600000       2.172833700000       0.000000000000
       133    2       14.091833700000       0.000000000000       7.528040400000
       134    1       11.919000000000       5.959500000000       9.389788200000
       135    2       11.919000000000       4.390959600000       9.746166300000
       136    2       11.919000000000       7.528040400000       9.746166300000
       137    1       17.878500000000       9.389788200000       0.000000000000
       138    2       16.309959600000       9.746166300000       0.000000000000
       139    2       19.447040400000       2.172833700000       0.000000000000
       140    1       21.308788200000       0.000000000000       5.959500000000
       141    2       21.665166300000       0.000000000000       7.528040400000
       142    2       21.665166300000      23.838000000000       4.390959600000
       143    2       11.919000000000       7.528040400000       2.172833700000
       144    2       19.447040400000       9.746166300000       0.000000000000
       145    1       11.919000000000      14.448211800000       5.959500000000
       146    1        1.314665700000      13.233665700000       4.033389600000
       147    1       23.838000000000      15.455367300000       3.536367300000
       148    2        0.000000000000      14.091833700000       4.390959600000
       149    1        5.959500000000      11.919000000000       2.529211800000
       150    1        4.033389600000      13.233665700000       1.314665700000
       151    1        3.536367300000      11.919000000000       3.536367300000
       152    2        4.390959600000      11.919000000000       2.172833700000
       153    1        2.529211800000      17.878500000000       0.000000000000
       154    1        1.314665700000      15.952389600000       1.314665700000
       155    1        3.536367300000      15.455367300000       0.000000000000
       156    2        2.172833700000      16.309959600000       0.000000000000
       157    1        1.314665700000      13.233665700000       7.885610400000
       158    1        0.000000000000      15.455367300000       8.382632700000
       159    2        0.000000000000      14.091833700000       7.528040400000
       160    1        5.959500000000      11.919000000000       9.389788200000
       161    1        4.033389600000      13.233665700000      10.604334300000
       162    1        3.536367300000      11.919000000000       8.382632700000
       163    2        4.390959600000      11.919000000000       9.746166300000
       164    1        1.314665700000      15.952389600000      10.604334300000
       165    1        7.885610400000      13.233665700000      10.604334300000
       166    1        8.382632700000      11.919000000000       8.382632700000
       167    2        7.528040400000      11.919000000000       9.746166300000
       168    1        9.389788200000      17.878500000000       0.000000000000
       169    1       10.604334300000      15.952389600000      10.604334300000
       170    1        8.382632700000      15.455367300000       0.000000000000
       171    2        9.746166300000      16.309959600000       0.000000000000
       172    1       10.604334300000      13.233665700000       7.885610400000
       173    1        1.314665700000      19.804610400000      10.604334300000
       174    1        3.536367300000      20.301632700000       0.000000000000
       175    2        2.172833700000      19.447040400000       0.000000000000
       176    1        0.000000000000      21.308788200000       5.959500000000
       177    1        1.314665700000      22.523334300000       7.885610400000
       178    1       23.838000000000      20.301632700000       8.382632700000
       179    2       23.838000000000      21.665166300000       7.528040400000
       180    1        4.033389600000      22.523334300000      10.604334300000
       181    1        1.314665700000      22.523334300000       4.033389600000
       182    1       23.838000000000      20.301632700000       3.536367300000
       183    2       23.838000000000      21.665166300000       4.390959600000
       184    1        4.033389600000      22.523334300000       1.314665700000
       185    1        1.314665700000      19.804610400000       1.314665700000
       186    1       10.604334300000      13.233665700000       4.033389600000
       187    1        7.885610400000      13.233665700000       1.314665700000
       188    1        8.382632700000      11.919000000000       3.536367300000
       189    2        7.528040400000      11.919000000000       2.172833700000
       190    1       10.604334300000      15.952389600000       1.314665700000
       191    1       10.604334300000      19.804610400000      10.604334300000
       192    1        8.382632700000      20.301632700000       0.000000000000
       193    2        9.746166300000      19.447040400000       0.000000000000
       194    1       10.604334300000      22.523334300000       7.885610400000
       195    1        7.885610400000      22.523334300000      10.604334300000
       196    1       10.604334300000      22.523334300000       4.033389600000
       197    1        7.885610400000      22.523334300000       1.314665700000
       198    1       10.604334300000      19.804610400000       1.314665700000
       199    1        2.529211800000      11.919000000000       5.959500000000
       200    2        2.172833700000      11.919000000000       4.390959600000
       201    1       23.838000000000      17.878500000000       2.529211800000
       202    2       23.838000000000      16.309959600000       2.172833700000
       203    1        5.959500000000      14.448211800000       0.000000000000
       204    2        4.390959600000      14.091833700000       0.000000000000
       205    2        2.172833700000      11.919000000000       7.528040400000
       206    1       23.838000000000      17.878500000000       9.389788200000
       207    2       23.838000000000      16.309959600000       9.746166300000
       208    2        0.000000000000      19.447040400000       9.746166300000
       209    1        5.959500000000      21.308788200000       0.000000000000
       210    2        4.390959600000      21.665166300000       0.000000000000
       211    2        7.528040400000      14.091833700000       0.000000000000
       212    1        9.389788200000      11.919000000000       5.959500000000
       213    2        9.746166300000      11.919000000000       7.528040400000
       214    2        9.746166300000      11.919000000000       4.390959600000
       215    2        0.000000000000      19.447040400000       2.172833700000
       216    2        7.528040400000      21.665166300000       0.000000000000
       217    1        0.000000000000      14.448211800000       5.959500000000
       218    1       13.233665700000      13.233665700000       4.033389600000
       219    1       11.919000000000      15.455367300000       3.536367300000
       220    2       11.919000000000      14.091833700000       4.390959600000
       221    1       17.878500000000      11.919000000000       2.529211800000
       222    1       15.952389600000      13.233665700000       1.314665700000
       223    1       15.455367300000      11.919000000000       3.536367300000
       224    2       16.309959600000      11.919000000000       2.172833700000
       225    1       14.448211800000      17.878500000000       0.000000000000
       226    1       13.233665700000      15.952389600000       1.314665700000
       227    1       15.455367300000      15.455367300000       0.000000000000
       228    2       14.091833700000      16.309959600000       0.000000000000
       229    1       13.233665700000      13.233665700000       7.885610400000
       230    1       11.919000000000      15.455367300000       8.382632700000
       231    2       11.919000000000      14.091833700000       7.528040400000
       232    1       17.878500000000      11.919000000000       9.389788200000
       233    1       15.952389600000      13.233665700000      10.604334300000
       234    1       15.455367300000      11.919000000000       8.382632700000
       235    2       16.309959600000      11.919000000000       9.746166300000
       236    1       13.233665700000      15.952389600000      10.604334300000
       237    1       19.804610400000      13.233665700000      10.604334300000
       238    1       20.301632700000      11.919000000000       8.382632700000
       239    2       19.447040400000      11.919000000000       9.746166300000
       240    1       21.308788200000      17.878500000000       0.000000000000
       241    1       22.523334300000      15.952389600000      10.604334300000
       242    1       20.301632700000      15.455367300000       0.000000000000
       243    2       21.665166300000      16.309959600000       0.000000000000
       244    1       22.523334300000      13.233665700000       7.885610400000
       245    1       13.233665700000      19.804610400000      10.604334300000
       246    1       15.455367300000      20.301632700000       0.000000000000
       247    2       14.091833700000      19.447040400000       0.000000000000
       248    1       11.919000000000      21.308788200000       5.959500000000
       249    1       13.233665700000      22.523334300000       7.885610400000
       250    1       11.919000000000      20.301632700000       8.382632700000
       251    2       11.919000000000      21.665166300000       7.528040400000
       252    1       15.952389600000      22.523334300000      10.604334300000
       253    1       13.233665700000      22.523334300000       4.033389600000
       254    1       11.919000000000      20.301632700000       3.536367300000
       255    2       11.919000000000      21.665166300000       4.390959600000
       256    1       15.952389600000      22.523334300000       1.314665700000
       257    1       13.233665700000      19.804610400000       1.314665700000
       258    1       22.523334300000      13.233665700000       4.033389600000
       259    1       19.804610400000      13.233665700000       1.314665700000
       260    1       20.301632700000      11.919000000000       3.536367300000
       261    2       19.447040400000      11.919000000000       2.172833700000
       262    1       22.523334300000      15.952389600000       1.314665700000
       263    1       22.523334300000      19.804610400000      10.604334300000
       264    1       20.301632700000      20.301632700000       0.000000000000
       265    2       21.665166300000      19.447040400000       0.000000000000
       266    1       22.523334300000      22.523334300000       7.885610400000
       267    1       19.804610400000      22.523334300000      10.604334300000
       268    1       22.523334300000      22.523334300000       4.033389600000
       269    1       19.804610400000      22.523334300000       1.314665700000
       270    1       22.523334300000      19.804610400000       1.314665700000
       271    1       14.448211800000      11.919000000000       5.959500000000
       272    2       14.091833700000      11.919000000000       4.390959600000
       273    1       11.919000000000      17.878500000000       2.529211800000
       274    2       11.919000000000      16.309959600000       2.172833700000
       275    1       17.878500000000      14.448211800000       0.000000000000
       276    2       16.309959600000      14.091833700000       0.000000000000
       277    2       14.091833700000      11.919000000000       7.528040400000
       278    1       11.919000000000      17.878500000000       9.389788200000
       279    2       11.919000000000      16.309959600000       9.746166300000
       280    2       11.919000000000      19.447040400000       9.746166300000
       281    1       17.878500000000      21.308788200000       0.000000000000
       282    2       16.309959600000      21.665166300000       0.000000000000
       283    2       19.447040400000      14.091833700000       0.000000000000
       284    1       21.308788200000      11.919000000000       5.959500000000
       285    2       21.665166300000      11.919000000000       7.528040400000
       286    2       21.665166300000      11.919000000000       4.390959600000
       287    2       11.919000000000      19.447040400000       2.172833700000
       288    2       19.447040400000      21.665166300000       0.000000000000
       289    1       11.919000000000       2.529211800000      17.878500000000
       290    1        1.314665700000       1.314665700000      15.952389600000
       291    1        0.000000000000       3.536367300000      15.455367300000
       292    2        0.000000000000       2.172833700000      16.309959600000
       293    1        5.959500000000       0.000000000000      14.448211800000
       294    1        4.033389600000       1.314665700000      13.233665700000
       295    1        3.536367300000      23.838000000000      15.455367300000
       296    2        4.390959600000       0.000000000000      14.091833700000
       297    1        2.529211800000       5.959500000000      11.919000000000
       298    1        1.314665700000       4.033389600000      13.233665700000
       299    1        3.536367300000       3.536367300000      11.919000000000
       300    2        2.172833700000       4.390959600000      11.919000000000
       301    1        1.314665700000       1.314665700000      19.804610400000
       302    1       23.838000000000       3.536367300000      20.301632700000
       303    2        0.000000000000       2.172833700000      19.447040400000
       304    1        5.959500000000       0.000000000000      21.308788200000
       305    1        4.033389600000       1.314665700000      22.523334300000
       306    1        3.536367300000      23.838000000000      20.301632700000
       307    2        4.390959600000      23.838000000000      21.665166300000
       308    1        1.314665700000       4.033389600000      22.523334300000
       309    1        7.885610400000       1.314665700000      22.523334300000
       310    1        8.382632700000      23.838000000000      20.301632700000
       311    2        7.528040400000      23.838000000000      21.665166300000
       312    1        9.389788200000       5.959500000000      11.919000000000
       313    1       10.604334300000       4.033389600000      22.523334300000
       314    1        8.382632700000       3.536367300000      11.919000000000
       315    2        9.746166300000       4.390959600000      11.919000000000
       316    1       10.604334300000       1.314665700000      19.804610400000
       317    1        1.314665700000       7.885610400000      22.523334300000
       318    1        3.536367300000       8.382632700000      11.919000000000
       319    2        2.172833700000       7.528040400000      11.919000000000
       320    1       23.838000000000       9.389788200000      17.878500000000
       321    1        1.314665700000      10.604334300000      19.804610400000
       322    1       23.838000000000       8.382632700000      20.301632700000
       323    2        0.000000000000       9.746166300000      19.447040400000
       324    1        4.033389600000      10.604334300000      22.523334300000
       325    1        1.314665700000      10.604334300000      15.952389600000
       326    1        0.000000000000       8.382632700000      15.455367300000
       327    2       23.838000000000       9.746166300000      16.309959600000
       328    1        4.033389600000      10.604334300000      13.233665700000
       329    1        1.314665700000       7.885610400000      13.233665700000
       330    1       10.604334300000       1.314665700000      15.952389600000
       331    1        7.885610400000       1.314665700000      13.233665700000
       332    1        8.382632700000      23.838000000000      15.455367300000
       333    2        7.528040400000       0.000000000000      14.091833700000
       334    1       10.604334300000       4.033389600000      13.233665700000
       335    1       10.604334300000       7.885610400000      22.523334300000
       336    1        8.382632700000       8.382632700000      11.919000000000
       337    2        9.746166300000       7.528040400000      11.919000000000
       338    1       10.604334300000      10.604334300000      19.804610400000
       339    1        7.885610400000      10.604334300000      22.523334300000
       340    1       10.604334300000      10.604334300000      15.952389600000
       341    1        7.885610400000      10.604334300000      13.233665700000
       342    1       10.604334300000       7.885610400000      13.233665700000
       343    1        2.529211800000      23.838000000000      17.878500000000
       344    2        2.172833700000      23.838000000000      16.309959600000
       345    1        0.000000000000       5.959500000000      14.448211800000
       346    2        0.000000000000       4.390959600000      14.091833700000
       347    1        5.959500000000       2.529211800000      11.919000000000
       348    2        4.390959600000       2.172833700000      11.919000000000
       349    2        2.172833700000       0.000000000000      19.447040400000
       350    1        0.000000000000       5.959500000000      21.308788200000
       351    2       23.838000000000       4.390959600000      21.665166300000
       352    2       23.838000000000       7.528040400000      21.665166300000
       353    1        5.959500000000       9.389788200000      11.919000000000
       354    2        4.390959600000       9.746166300000      11.919000000000
       355    2        7.528040400000       2.172833700000      11.919000000000
       356    1        9.389788200000      23.838000000000      17.878500000000
       357    2        9.746166300000       0.000000000000      19.447040400000
       358    2        9.746166300000      23.838000000000      16.309959600000
       359    2        0.000000000000       7.528040400000      14.091833700000
       360    2        7.528040400000       9.746166300000      11.919000000000
       361    1        0.000000000000       2.529211800000      17.878500000000
       362    1       13.233665700000       1.314665700000      15.952389600000
       363    1       11.919000000000       3.536367300000      15.455367300000
       364    2       11.919000000000       2.172833700000      16.309959600000
       365    1       17.878500000000       0.000000000000      14.448211800000
       366    1       15.952389600000       1.314665700000      13.233665700000
       367    1       15.455367300000      23.838000000000      15.455367300000
       368    2       16.309959600000       0.000000000000      14.091833700000
       369    1       14.448211800000       5.959500000000      11.919000000000
       370    1       13.233665700000       4.033389600000      13.233665700000