 # O192 Si96
 
         288  atoms
           2  atom types
 
      0.000000000000      17.930000000000  xlo xhi
      0.000000000000      17.930000000000  ylo yhi
      0.000000000000      17.930000000000  zlo zhi
 
Masses
 
            1   15.99900000             # O
            2   28.08500000             # Si
 
Atoms # atomic
 
         1    1        1.315165500000       4.482500000000       7.649834500000
         2    2        2.241250000000       4.482500000000       0.000000000000
         3    1        5.797665500000       0.000000000000       3.167334500000
         4    2        6.723750000000       0.000000000000       4.482500000000
         5    1        7.649834500000       1.315165500000       4.482500000000
         6    2       17.930000000000       2.241250000000       4.482500000000
         7    1        3.167334500000       5.797665500000       0.000000000000
         8    2        4.482500000000       6.723750000000       0.000000000000
         9    1       17.930000000000       3.167334500000       5.797665500000
        10    2       17.930000000000       4.482500000000       6.723750000000
        11    1        4.482500000000       7.649834500000       1.315165500000
        12    2        4.482500000000       0.000000000000       2.241250000000
        13    1        1.315165500000       4.482500000000       1.315165500000
        14    1        5.797665500000       0.000000000000       5.797665500000
        15    1        0.000000000000       3.167334500000       3.167334500000
        16    2       17.930000000000       4.482500000000       2.241250000000
        17    1        4.482500000000       7.649834500000       7.649834500000
        18    2        4.482500000000       0.000000000000       6.723750000000
        19    1        1.315165500000       1.315165500000       4.482500000000
        20    1        5.797665500000       5.797665500000       0.000000000000
        21    1        3.167334500000       0.000000000000       5.797665500000
        22    2        2.241250000000       0.000000000000       4.482500000000
        23    1        7.649834500000       4.482500000000       1.315165500000
        24    2        6.723750000000       4.482500000000       0.000000000000
        25    1        8.965000000000       5.797665500000       3.167334500000
        26    1        4.482500000000       1.315165500000       7.649834500000
        27    1        1.315165500000       7.649834500000       4.482500000000
        28    2       17.930000000000       6.723750000000       4.482500000000
        29    1        5.797665500000       3.167334500000       0.000000000000
        30    2        4.482500000000       2.241250000000       0.000000000000
        31    1        3.167334500000       3.167334500000       0.000000000000
        32    1        7.649834500000       7.649834500000       4.482500000000
        33    1        0.000000000000       5.797665500000       5.797665500000
        34    1        4.482500000000       1.315165500000       1.315165500000
        35    1        7.649834500000       4.482500000000       7.649834500000
        36    1        3.167334500000       0.000000000000       3.167334500000
        37    1       10.280165500000       4.482500000000       7.649834500000
        38    2       11.206250000000       4.482500000000       0.000000000000
        39    1       14.762665500000       0.000000000000       3.167334500000
        40    2       15.688750000000       0.000000000000       4.482500000000
        41    1       16.614834500000       1.315165500000       4.482500000000
        42    2        8.965000000000       2.241250000000       4.482500000000
        43    1       12.132334500000       5.797665500000       0.000000000000
        44    2       13.447500000000       6.723750000000       0.000000000000
        45    1        8.965000000000       3.167334500000       5.797665500000
        46    2        8.965000000000       4.482500000000       6.723750000000
        47    1       13.447500000000       7.649834500000       1.315165500000
        48    2       13.447500000000       0.000000000000       2.241250000000
        49    1       10.280165500000       4.482500000000       1.315165500000
        50    1       14.762665500000       0.000000000000       5.797665500000
        51    1        8.965000000000       3.167334500000       3.167334500000
        52    2        8.965000000000       4.482500000000       2.241250000000
        53    1       13.447500000000       7.649834500000       7.649834500000
        54    2       13.447500000000       0.000000000000       6.723750000000
        55    1       10.280165500000       1.315165500000       4.482500000000
        56    1       14.762665500000       5.797665500000       0.000000000000
        57    1       12.132334500000       0.000000000000       5.797665500000
        58    2       11.206250000000       0.000000000000       4.482500000000
        59    1       16.614834500000       4.482500000000       1.315165500000
        60    2       15.688750000000       4.482500000000       0.000000000000
        61    1       17.930000000000       5.797665500000       3.167334500000
        62    1       13.447500000000       1.315165500000       7.649834500000
        63    1       10.280165500000       7.649834500000       4.482500000000
        64    2        8.965000000000       6.723750000000       4.482500000000
        65    1       14.762665500000       3.167334500000       0.000000000000
        66    2       13.447500000000       2.241250000000       0.000000000000
        67    1       12.132334500000       3.167334500000       0.000000000000
        68    1       16.614834500000       7.649834500000       4.482500000000
        69    1        8.965000000000       5.797665500000       5.797665500000
        70    1       13.447500000000       1.315165500000       1.315165500000
        71    1       16.614834500000       4.482500000000       7.649834500000
        72    1       12.132334500000       0.000000000000       3.167334500000
        73    1        1.315165500000      13.447500000000       7.649834500000
        74    2        2.241250000000      13.447500000000       0.000000000000
        75    1        5.797665500000       8.965000000000       3.167334500000
        76    2        6.723750000000       8.965000000000       4.482500000000
        77    1        7.649834500000      10.280165500000       4.482500000000
        78    2       17.930000000000      11.206250000000       4.482500000000
        79    1        3.167334500000      14.762665500000       0.000000000000
        80    2        4.482500000000      15.688750000000       0.000000000000
        81    1        0.000000000000      12.132334500000       5.797665500000
        82    2        0.000000000000      13.447500000000       6.723750000000
        83    1        4.482500000000      16.614834500000       1.315165500000
        84    2        4.482500000000       8.965000000000       2.241250000000
        85    1        1.315165500000      13.447500000000       1.315165500000
        86    1        5.797665500000       8.965000000000       5.797665500000
        87    1       17.930000000000      12.132334500000       3.167334500000
        88    2        0.000000000000      13.447500000000       2.241250000000
        89    1        4.482500000000      16.614834500000       7.649834500000
        90    2        4.482500000000       8.965000000000       6.723750000000
        91    1        1.315165500000      10.280165500000       4.482500000000
        92    1        5.797665500000      14.762665500000       0.000000000000
        93    1        3.167334500000       8.965000000000       5.797665500000
        94    2        2.241250000000       8.965000000000       4.482500000000
        95    1        7.649834500000      13.447500000000       1.315165500000
        96    2        6.723750000000      13.447500000000       0.000000000000
        97    1        8.965000000000      14.762665500000       3.167334500000
        98    1        4.482500000000      10.280165500000       7.649834500000
        99    1        1.315165500000      16.614834500000       4.482500000000
       100    2        0.000000000000      15.688750000000       4.482500000000
       101    1        5.797665500000      12.132334500000       0.000000000000
       102    2        4.482500000000      11.206250000000       0.000000000000
       103    1        3.167334500000      12.132334500000       0.000000000000
       104    1        7.649834500000      16.614834500000       4.482500000000
       105    1       17.930000000000      14.762665500000       5.797665500000
       106    1        4.482500000000      10.280165500000       1.315165500000
       107    1        7.649834500000      13.447500000000       7.649834500000
       108    1        3.167334500000       8.965000000000       3.167334500000
       109    1       10.280165500000      13.447500000000       7.649834500000
       110    2       11.206250000000      13.447500000000       0.000000000000
       111    1       14.762665500000       8.965000000000       3.167334500000
       112    2       15.688750000000       8.965000000000       4.482500000000
       113    1       16.614834500000      10.280165500000       4.482500000000
       114    2        8.965000000000      11.206250000000       4.482500000000
       115    1       12.132334500000      14.762665500000       0.000000000000
       116    2       13.447500000000      15.688750000000       0.000000000000
       117    1        8.965000000000      12.132334500000       5.797665500000
       118    2        8.965000000000      13.447500000000       6.723750000000
       119    1       13.447500000000      16.614834500000       1.315165500000
       120    2       13.447500000000       8.965000000000       2.241250000000
       121    1       10.280165500000      13.447500000000       1.315165500000
       122    1       14.762665500000       8.965000000000       5.797665500000
       123    1        8.965000000000      12.132334500000       3.167334500000
       124    2        8.965000000000      13.447500000000       2.241250000000
       125    1       13.447500000000      16.614834500000       7.649834500000
       126    2       13.447500000000       8.965000000000       6.723750000000
       127    1       10.280165500000      10.280165500000       4.482500000000
       128    1       14.762665500000      14.762665500000       0.000000000000
       129    1       12.132334500000       8.965000000000       5.797665500000
       130    2       11.206250000000       8.965000000000       4.482500000000
       131    1       16.614834500000      13.447500000000       1.315165500000
       132    2       15.688750000000      13.447500000000       0.000000000000
       133    1       17.930000000000      14.762665500000       3.167334500000
       134    1       13.447500000000      10.280165500000       7.649834500000
       135    1       10.280165500000      16.614834500000       4.482500000000
       136    2        8.965000000000      15.688750000000       4.482500000000
       137    1       14.762665500000      12.132334500000       0.000000000000
       138    2       13.447500000000      11.206250000000       0.000000000000
       139    1       12.132334500000      12.132334500000       0.000000000000
       140    1       16.614834500000      16.614834500000       4.482500000000
       141    1        8.965000000000      14.762665500000       5.797665500000
       142    1       13.447500000000      10.280165500000       1.315165500000
       143    1       16.614834500000      13.447500000000       7.649834500000
       144    1       12.132334500000       8.965000000000       3.167334500000
       145    1        1.315165500000       4.482500000000      16.614834500000
       146    2        2.241250000000       4.482500000000       8.965000000000
       147    1        5.797665500000       0.000000000000      12.132334500000
       148    2        6.723750000000       0.000000000000      13.447500000000
       149    1        7.649834500000       1.315165500000      13.447500000000
       150    2        0.000000000000       2.241250000000      13.447500000000
       151    1        3.167334500000       5.797665500000       8.965000000000
       152    2        4.482500000000       6.723750000000       8.965000000000
       153    1       17.930000000000       3.167334500000      14.762665500000
       154    2        0.000000000000       4.482500000000      15.688750000000
       155    1        4.482500000000       7.649834500000      10.280165500000
       156    2        4.482500000000      17.930000000000      11.206250000000
       157    1        1.315165500000       4.482500000000      10.280165500000
       158    1        5.797665500000       0.000000000000      14.762665500000
       159    1       17.930000000000       3.167334500000      12.132334500000
       160    2       17.930000000000       4.482500000000      11.206250000000
       161    1        4.482500000000       7.649834500000      16.614834500000
       162    2        4.482500000000       0.000000000000      15.688750000000
       163    1        1.315165500000       1.315165500000      13.447500000000
       164    1        5.797665500000       5.797665500000       8.965000000000
       165    1        3.167334500000       0.000000000000      14.762665500000
       166    2        2.241250000000       0.000000000000      13.447500000000
       167    1        7.649834500000       4.482500000000      10.280165500000
       168    2        6.723750000000       4.482500000000       8.965000000000
       169    1        8.965000000000       5.797665500000      12.132334500000
       170    1        4.482500000000       1.315165500000      16.614834500000
       171    1        1.315165500000       7.649834500000      13.447500000000
       172    2        0.000000000000       6.723750000000      13.447500000000
       173    1        5.797665500000       3.167334500000       8.965000000000
       174    2        4.482500000000       2.241250000000       8.965000000000
       175    1        3.167334500000       3.167334500000       8.965000000000
       176    1        7.649834500000       7.649834500000      13.447500000000
       177    1       17.930000000000       5.797665500000      14.762665500000
       178    1        4.482500000000       1.315165500000      10.280165500000
       179    1        7.649834500000       4.482500000000      16.614834500000
       180    1        3.167334500000       0.000000000000      12.132334500000
       181    1       10.280165500000       4.482500000000      16.614834500000
       182    2       11.206250000000       4.482500000000       8.965000000000
       183    1       14.762665500000       0.000000000000      12.132334500000
       184    2       15.688750000000       0.000000000000      13.447500000000
       185    1       16.614834500000       1.315165500000      13.447500000000
       186    2        8.965000000000       2.241250000000      13.447500000000
       187    1       12.132334500000       5.797665500000       8.965000000000
       188    2       13.447500000000       6.723750000000       8.965000000000
       189    1        8.965000000000       3.167334500000      14.762665500000
       190    2        8.965000000000       4.482500000000      15.688750000000
       191    1       13.447500000000       7.649834500000      10.280165500000
       192    2       13.447500000000      17.930000000000      11.206250000000
       193    1       10.280165500000       4.482500000000      10.280165500000
       194    1       14.762665500000       0.000000000000      14.762665500000
       195    1        8.965000000000       3.167334500000      12.132334500000
       196    2        8.965000000000       4.482500000000      11.206250000000
       197    1       13.447500000000       7.649834500000      16.614834500000
       198    2       13.447500000000       0.000000000000      15.688750000000
       199    1       10.280165500000       1.315165500000      13.447500000000
       200    1       14.762665500000       5.797665500000       8.965000000000
       201    1       12.132334500000       0.000000000000      14.762665500000
       202    2       11.206250000000       0.000000000000      13.447500000000
       203    1       16.614834500000       4.482500000000      10.280165500000
       204    2       15.688750000000       4.482500000000       8.965000000000
       205    1       17.930000000000       5.797665500000      12.132334500000
       206    1       13.447500000000       1.315165500000      16.614834500000
       207    1       10.280165500000       7.649834500000      13.447500000000
       208    2        8.965000000000       6.723750000000      13.447500000000
       209    1       14.762665500000       3.167334500000       8.965000000000
       210    2       13.447500000000       2.241250000000       8.965000000000
       211    1       12.132334500000       3.167334500000       8.965000000000
       212    1       16.614834500000       7.649834500000      13.447500000000
       213    1        8.965000000000       5.797665500000      14.762665500000
       214    1       13.447500000000       1.315165500000      10.280165500000
       215    1       16.614834500000       4.482500000000      16.614834500000
       216    1       12.132334500000       0.000000000000      12.132334500000
       217    1        1.315165500000      13.447500000000      16.614834500000
       218    2        2.241250000000      13.447500000000       8.965000000000
       219    1        5.797665500000       8.965000000000      12.132334500000
       220    2        6.723750000000       8.965000000000      13.447500000000
       221    1        7.649834500000      10.280165500000      13.447500000000
       222    2        0.000000000000      11.206250000000      13.447500000000
       223    1        3.167334500000      14.762665500000       8.965000000000
       224    2        4.482500000000      15.688750000000       8.965000000000
       225    1       17.930000000000      12.132334500000      14.762665500000
       226    2       17.930000000000      13.447500000000      15.688750000000
       227    1        4.482500000000      16.614834500000      10.280165500000
       228    2        4.482500000000       8.965000000000      11.206250000000
       229    1        1.315165500000      13.447500000000      10.280165500000
       230    1        5.797665500000       8.965000000000      14.762665500000
       231    1        0.000000000000      12.132334500000      12.132334500000
       232    2        0.000000000000      13.447500000000      11.206250000000
       233    1        4.482500000000      16.614834500000      16.614834500000
       234    2        4.482500000000       8.965000000000      15.688750000000
       235    1        1.315165500000      10.280165500000      13.447500000000
       236    1        5.797665500000      14.762665500000       8.965000000000
       237    1        3.167334500000       8.965000000000      14.762665500000
       238    2        2.241250000000       8.965000000000      13.447500000000
       239    1        7.649834500000      13.447500000000      10.280165500000
       240    2        6.723750000000      13.447500000000       8.965000000000
       241    1        8.965000000000      14.762665500000      12.132334500000
       242    1        4.482500000000      10.280165500000      16.614834500000
       243    1        1.315165500000      16.614834500000      13.447500000000
       244    2        0.000000000000      15.688750000000      13.447500000000
       245    1        5.797665500000      12.132334500000       8.965000000000
       246    2        4.482500000000      11.206250000000       8.965000000000
       247    1        3.167334500000      12.132334500000       8.965000000000
       248    1        7.649834500000      16.614834500000      13.447500000000
       249    1       17.930000000000      14.762665500000      14.762665500000
       250    1        4.482500000000      10.280165500000      10.280165500000
       251    1        7.649834500000      13.447500000000      16.614834500000
       252    1        3.167334500000       8.965000000000      12.132334500000
       253    1       10.280165500000      13.447500000000      16.614834500000
       254    2       11.206250000000      13.447500000000       8.965000000000
       255    1       14.762665500000       8.965000000000      12.132334500000
       256    2       15.688750000000       8.965000000000      13.447500000000
       257    1       16.614834500000      10.280165500000      13.447500000000
       258    2        8.965000000000      11.206250000000      13.447500000000
       259    1       12.132334500000      14.762665500000       8.965000000000
       260    2       13.447500000000      15.688750000000       8.965000000000
       261    1        8.965000000000      12.132334500000      14.762665500000
       262    2        8.965000000000      13.447500000000      15.688750000000
       263    1       13.447500000000      16.614834500000      10.280165500000
       264    2       13.447500000000       8.965000000000      11.206250000000
       265    1       10.280165500000      13.447500000000      10.280165500000
       266    1       14.762665500000       8.965000000000      14.762665500000
       267    1        8.965000000000      12.132334500000      12.132334500000
       268    2        8.965000000000      13.447500000000      11.206250000000
       269    1       13.447500000000      16.614834500000      16.614834500000
       270    2       13.447500000000       8.965000000000      15.688750000000
       271    1       10.280165500000      10.280165500000      13.447500000000
       272    1       14.762665500000      14.762665500000       8.965000000000
       273    1       12.132334500000       8.965000000000      14.762665500000
       274    2       11.206250000000       8.965000000000      13.447500000000
       275    1       16.614834500000      13.447500000000      10.280165500000
       276    2       15.688750000000      13.447500000000       8.965000000000
       277    1       17.930000000000      14.762665500000      12.132334500000
       278    1       13.447500000000      10.280165500000      16.614834500000
       279    1       10.280165500000      16.614834500000      13.447500000000
       280    2        8.965000000000      15.688750000000      13.447500000000
       281    1       14.762665500000      12.132334500000       8.965000000000
       282    2       13.447500000000      11.206250000000       8.965000000000
       283    1       12.132334500000      12.132334500000       8.965000000000
       284    1       16.614834500000      16.614834500000      13.447500000000
       285    1        8.965000000000      14.762665500000      14.762665500000
       286    1       13.447500000000      10.280165500000      10.280165500000
       287    1       16.614834500000      13.447500000000      16.614834500000
       288    1       12.132334500000       8.965000000000      12.132334500000
