LAMMPS data file -- atom_style full -- generated by chemfiles
2188 atoms
1376 bonds
688 angles
0 dihedrals
0 impropers
4 atom types
1 bond types
1 angle types
0 dihedral types
0 improper types
0 32 xlo xhi
0 32 ylo yhi
0 32 zlo zhi

# Pair Coeffs
# 1 Cl
# 2 Hw
# 3 Li
# 4 Ow

# Bond Coeffs
# 1 Hw-Ow

# Angle Coeffs
# 1 Hw-Ow-Hw

Masses

1 35.45 # Cl
2 1.008 # Hw
3 6.94 # Li
4 15.999 # Ow

Atoms # full

1 1 2 0 6.583 8.67 13.419 # Hw
2 1 2 0 5.258 7.74 13.2 # Hw
3 1 4 0 6.177 7.772 13.592 # Ow
4 2 2 0 2.761 25.148 -0 # Hw
5 2 2 0 3.107 25.106 1.595 # Hw
6 2 4 0 3.492 25.046 0.675 # Ow
7 3 2 0 14.196 27.729 28.221 # Hw
8 3 2 0 14.92 29.171 27.975 # Hw
9 3 4 0 14.048 28.716 28.152 # Ow
10 4 2 0 22.618 0.533 25.396 # Hw
11 4 2 0 21.792 -0 26.699 # Hw
12 4 4 0 22.563 0.557 26.394 # Ow
13 5 2 0 6.082 16.111 15.145 # Hw
14 5 2 0 4.934 15.967 16.297 # Hw
15 5 4 0 5.791 15.59 15.947 # Ow
16 6 2 0 6.34 14.742 18.788 # Hw
17 6 2 0 7.635 15.559 19.356 # Hw
18 6 4 0 7.28 14.656 19.119 # Ow
19 7 2 0 14.434 17.588 16.487 # Hw
20 7 2 0 13.588 16.205 16.293 # Hw
21 7 4 0 14.486 16.59 16.504 # Ow
22 8 2 0 7.786 4.965 6.862 # Hw
23 8 2 0 6.554 5.656 6.043 # Hw
24 8 4 0 6.805 5.155 6.871 # Ow
25 9 2 0 21.515 2.14 30.001 # Hw
26 9 2 0 21.626 0.639 29.369 # Hw
27 9 4 0 21.101 1.23 29.981 # Ow
28 10 2 0 13.088 2.687 13.876 # Hw
29 10 2 0 13.412 2.906 15.462 # Hw
30 10 4 0 12.718 3.005 14.749 # Ow
31 11 2 0 19.782 20.867 22.362 # Hw
32 11 2 0 18.469 21.817 22.565 # Hw
33 11 4 0 19.45 21.734 22.737 # Ow
34 12 2 0 0.004 29.979 26.889 # Hw
35 12 2 0 0.046 29.981 25.256 # Hw
36 12 4 0 -0 29.404 26.071 # Ow
37 13 2 0 10.748 8.884 10.043 # Hw
38 13 2 0 10.686 9.618 8.586 # Hw
39 13 4 0 11.012 8.814 9.081 # Ow
40 14 2 0 27.185 23.227 8.635 # Hw
41 14 2 0 26.515 22.589 9.98 # Hw
42 14 4 0 26.929 23.408 9.585 # Ow
43 15 2 0 18.874 17.924 29.392 # Hw
44 15 2 0 20.074 16.861 29.704 # Hw
45 15 4 0 19.192 17.21 30.017 # Ow
46 16 2 0 4.876 18.235 3.581 # Hw
47 16 2 0 6.175 17.259 3.745 # Hw
48 16 4 0 5.874 18.19 3.541 # Ow
49 17 2 0 0.001 18.298 0 # Hw
50 17 2 0 0.004 18.686 1.587 # Hw
51 17 4 0 0.39 18.077 0.895 # Ow
52 18 2 0 9.596 18.602 1.786 # Hw
53 18 2 0 8.348 17.592 1.485 # Hw
54 18 4 0 8.615 18.549 1.594 # Ow
55 19 2 0 21.587 21.891 10.478 # Hw
56 19 2 0 22.316 21.211 11.771 # Hw
57 19 4 0 21.523 21.166 11.164 # Ow
58 20 2 0 17.105 5.671 13.638 # Hw
59 20 2 0 17.339 6.993 14.568 # Hw
60 20 4 0 17.781 6.198 14.154 # Ow
61 21 2 0 17.21 14.563 29.052 # Hw
62 21 2 0 17.636 15.83 28.115 # Hw
63 21 4 0 17.139 15.554 28.937 # Ow
64 22 2 0 8.731 27.52 17.651 # Hw
65 22 2 0 9.719 26.737 18.689 # Hw
66 22 4 0 8.862 27.243 18.603 # Ow
67 23 2 0 2.964 5.968 17.133 # Hw
68 23 2 0 3.58 4.456 17.163 # Hw
69 23 4 0 3.806 5.429 17.158 # Ow
70 24 2 0 1.855 5.389 19.582 # Hw
71 24 2 0 0.344 5.974 19.378 # Hw
72 24 4 0 1.295 6.217 19.564 # Ow
73 25 2 0 7.452 29.999 16.014 # Hw
74 25 2 0 6.162 29.019 16.222 # Hw
75 25 4 0 7.062 29.104 15.796 # Ow
76 26 2 0 8.276 29.897 19.024 # Hw
77 26 2 0 6.853 29.107 18.882 # Hw
78 26 4 0 7.285 30.007 18.946 # Ow
79 27 2 0 19.506 10.794 0.635 # Hw
80 27 2 0 20.74 11.77 1.074 # Hw
81 27 4 0 19.803 11.494 1.285 # Ow
82 28 2 0 6.197 -0.001 15.545 # Hw
83 28 2 0 7.48 0.637 16.328 # Hw
84 28 4 0 6.551 0.284 16.436 # Ow
85 29 2 0 0 22.063 3.059 # Hw
86 29 2 0 0.936 20.73 3.17 # Hw
87 29 4 0 -0 21.063 3.068 # Ow
88 30 2 0 18.719 17.839 7.869 # Hw
89 30 2 0 18.61 16.615 6.793 # Hw
90 30 4 0 18.24 17.505 7.056 # Ow
91 31 2 0 14.733 19.594 24.115 # Hw
92 31 2 0 16.263 20.052 23.776 # Hw
93 31 4 0 15.339 20.377 23.976 # Ow
94 32 2 0 7.42 -0.008 4.793 # Hw
95 32 2 0 8.8 0.122 5.657 # Hw
96 32 4 0 8.417 0.058 4.736 # Ow
97 33 2 0 7.361 14.015 2.911 # Hw
98 33 2 0 7.233 14.791 4.342 # Hw
99 33 4 0 7.691 14.049 3.855 # Ow
100 34 2 0 8.636 14.438 7.414 # Hw
101 34 2 0 7.177 14.772 8.066 # Hw
102 34 4 0 8.118 15.093 7.963 # Ow
103 35 2 0 20.595 28.132 0.001 # Hw
104 35 2 0 20.195 29.321 1.046 # Hw
105 35 4 0 20.87 29.018 0.375 # Ow
106 36 2 0 2.812 0.207 20.792 # Hw
107 36 2 0 1.719 0.997 21.712 # Hw
108 36 4 0 1.837 0.358 20.953 # Ow
109 37 2 0 16.748 27.615 22.327 # Hw
110 37 2 0 17.007 29.205 22.056 # Hw
111 37 4 0 17.152 28.282 21.7 # Ow
112 38 2 0 0.437 12.588 3.877 # Hw
113 38 2 0 1.786 13.497 4.02 # Hw
114 38 4 0 1.403 12.661 3.628 # Ow
115 39 2 0 20.376 23.492 1.469 # Hw
116 39 2 0 19.659 24.363 0.289 # Hw
117 39 4 0 19.542 23.605 0.929 # Ow
118 40 2 0 0.001 27.013 14.244 # Hw
119 40 2 0 -0.001 25.667 13.32 # Hw
120 40 4 0 0.036 26.665 13.307 # Ow
121 41 2 0 22.205 26.713 16.6 # Hw
122 41 2 0 22.538 27.32 18.079 # Hw
123 41 4 0 22.932 27.038 17.204 # Ow
124 42 2 0 16.966 8.902 5.525 # Hw
125 42 2 0 17.503 7.367 5.673 # Hw
126 42 4 0 16.723 7.976 5.815 # Ow
127 43 2 0 17.443 2.738 22.162 # Hw
128 43 2 0 16.451 4.01 21.909 # Hw
129 43 4 0 17.388 3.676 21.818 # Ow
130 44 2 0 4.256 29.998 7.882 # Hw
131 44 2 0 3.383 30 9.262 # Hw
132 44 4 0 3.754 29.428 8.532 # Ow
133 45 2 0 14.369 14.087 21.952 # Hw
134 45 2 0 13.704 15.129 23.019 # Hw
135 45 4 0 13.546 14.305 22.476 # Ow
136 46 2 0 3.3 27.213 17.456 # Hw
137 46 2 0 3.206 28.459 18.507 # Hw
138 46 4 0 3.796 27.985 17.855 # Ow
139 47 2 0 22.531 9.178 5.916 # Hw
140 47 2 0 22.88 8.213 7.186 # Hw
141 47 4 0 23.127 8.446 6.246 # Ow
142 48 2 0 18.805 0 10.002 # Hw
143 48 2 0 18.215 0.378 8.527 # Hw
144 48 4 0 17.981 0.036 9.436 # Ow
145 49 2 0 17.925 0.866 20.206 # Hw
146 49 2 0 18.069 2.338 19.514 # Hw
147 49 4 0 18.572 1.554 19.878 # Ow
148 50 2 0 25.609 16.831 4.31 # Hw
149 50 2 0 26.711 17.909 3.772 # Hw
150 50 4 0 26.586 17.018 4.209 # Ow
151 51 2 0 3.984 9.246 2.534 # Hw
152 51 2 0 5.156 10.356 2.781 # Hw
153 51 4 0 4.173 10.219 2.667 # Ow
154 52 2 0 23.61 16.526 15.818 # Hw
155 52 2 0 22.638 16.798 17.102 # Hw
156 52 4 0 22.706 16.353 16.21 # Ow
157 53 2 0 12.255 12.517 0.136 # Hw
158 53 2 0 11.724 13.877 0.869 # Hw
159 53 4 0 11.824 13.408 -0.008 # Ow
160 54 2 0 24.6 20.569 17.22 # Hw
161 54 2 0 24.275 18.983 17.431 # Hw
162 54 4 0 24.607 19.669 16.784 # Ow
163 55 2 0 29.679 11.92 13.184 # Hw
164 55 2 0 29.146 12.322 14.675 # Hw
165 55 4 0 28.87 12.021 13.763 # Ow
166 56 2 0 25.839 26.365 13.776 # Hw
167 56 2 0 24.701 25.345 13.2 # Hw
168 56 4 0 25.655 25.425 13.487 # Ow
169 57 2 0 29.193 9.658 25.643 # Hw
170 57 2 0 29.737 11.194 25.753 # Hw
171 57 4 0 30.009 10.233 25.701 # Ow
172 58 2 0 29.356 3.583 4.307 # Hw
173 58 2 0 29.099 1.971 4.339 # Hw
174 58 4 0 29.758 2.688 4.115 # Ow
175 59 2 0 26.693 8.312 13.306 # Hw
176 59 2 0 25.812 8.709 11.99 # Hw
177 59 4 0 26.64 8.915 12.51 # Ow
178 60 2 0 2.611 19.364 27.657 # Hw
179 60 2 0 4.093 19.517 28.325 # Hw
180 60 4 0 3.589 19.446 27.465 # Ow
181 61 2 0 0.027 20.434 14.845 # Hw
182 61 2 0 0.004 19.434 13.555 # Hw
183 61 4 0 0 20.39 13.846 # Ow
184 62 2 0 1.802 14.858 25.373 # Hw
185 62 2 0 2.203 16.076 26.384 # Hw
186 62 4 0 1.906 15.124 26.331 # Ow
187 63 2 0 19.053 24.993 10.08 # Hw
188 63 2 0 17.879 24.261 9.212 # Hw
189 63 4 0 18.518 24.155 9.973 # Ow
190 64 2 0 8 30 5.67 # Hw
191 64 2 0 7.942 28.446 5.174 # Hw
192 64 4 0 8.526 29.251 5.269 # Ow
193 65 2 0 24.332 25.323 24.435 # Hw
194 65 2 0 24.119 23.921 23.623 # Hw
195 65 4 0 23.913 24.899 23.631 # Ow
196 66 2 0 11.818 20.697 24.174 # Hw
197 66 2 0 12.852 21.516 23.212 # Hw
198 66 4 0 12.596 21.324 24.159 # Ow
199 67 2 0 25.966 15.472 28.629 # Hw
200 67 2 0 25.42 14.774 30 # Hw
201 67 4 0 25.39 15.599 29.436 # Ow
202 68 2 0 0 12.057 9.727 # Hw
203 68 2 0 0.487 10.519 9.981 # Hw
204 68 4 0 0.795 11.457 9.827 # Ow
205 69 2 0 24.124 5.339 4.938 # Hw
206 69 2 0 24.9 6.333 5.976 # Hw
207 69 4 0 24.999 5.773 5.154 # Ow
208 70 2 0 6.489 2.613 8.571 # Hw
209 70 2 0 5.974 3.908 9.421 # Hw
210 70 4 0 5.701 3.033 9.022 # Ow
211 71 2 0 22.871 19.297 30.005 # Hw
212 71 2 0 21.585 19.696 29.081 # Hw
213 71 4 0 21.872 19.314 29.958 # Ow
214 72 2 0 15.45 21.994 8.109 # Hw
215 72 2 0 16.153 22.151 9.574 # Hw
216 72 4 0 15.511 22.563 8.929 # Ow
217 73 2 0 15.856 4.51 7.569 # Hw
218 73 2 0 15.528 3.054 6.907 # Hw
219 73 4 0 15.594 3.564 7.763 # Ow
220 74 2 0 1.649 28.583 22.126 # Hw
221 74 2 0 2.339 30.014 21.751 # Hw
222 74 4 0 1.527 29.576 22.133 # Ow
223 75 2 0 27.681 8.3 23.329 # Hw
224 75 2 0 26.181 8.807 23.729 # Hw
225 75 4 0 27.156 9.018 23.786 # Ow
226 76 2 0 22.536 26.978 22.489 # Hw
227 76 2 0 24.044 27.519 22.805 # Hw
228 76 4 0 23.092 27.79 22.664 # Ow
229 77 2 0 24.902 12.274 18.648 # Hw
230 77 2 0 24.028 12.86 19.897 # Hw
231 77 4 0 24.462 12.044 19.516 # Ow
232 78 2 0 22.37 10.223 20.407 # Hw
233 78 2 0 21.811 9.439 19.088 # Hw
234 78 4 0 22.506 9.435 19.807 # Ow
235 79 2 0 24.391 20.822 10.009 # Hw
236 79 2 0 24.13 19.48 9.116 # Hw
237 79 4 0 23.721 20.327 9.455 # Ow
238 80 2 0 17.537 6.352 0.238 # Hw
239 80 2 0 16.308 5.303 0.005 # Hw
240 80 4 0 16.569 6.175 0.416 # Ow
241 81 2 0 15.351 12.913 16.259 # Hw
242 81 2 0 16.793 13.187 15.542 # Hw
243 81 4 0 15.813 13.067 15.385 # Ow
244 82 2 0 18.213 23.071 17.361 # Hw
245 82 2 0 17.343 23.909 16.261 # Hw
246 82 4 0 17.709 23.919 17.191 # Ow
247 83 2 0 30 16.302 15.665 # Hw
248 83 2 0 30 14.675 15.813 # Hw
249 83 4 0 29.424 15.486 15.717 # Ow
250 84 2 0 0 14.19 20.622 # Hw
251 84 2 0 0.003 15.755 20.155 # Hw
252 84 4 0 0.554 14.924 20.227 # Ow
253 85 2 0 29.916 7.813 27.982 # Hw
254 85 2 0 28.777 6.697 27.628 # Hw
255 85 4 0 29.732 6.834 27.888 # Ow
256 86 2 0 4.885 13.306 7.668 # Hw
257 86 2 0 6.035 12.147 7.661 # Hw
258 86 4 0 5.051 12.319 7.683 # Ow
259 87 2 0 30 7.866 12.151 # Hw
260 87 2 0 29.951 6.519 13.073 # Hw
261 87 4 0 29.402 7.239 12.65 # Ow
262 88 2 0 21.313 17.111 6.881 # Hw
263 88 2 0 20.979 18.304 5.817 # Hw
264 88 4 0 21.224 18.101 6.764 # Ow
265 89 2 0 9.097 18.639 19.742 # Hw
266 89 2 0 8.489 18.296 21.218 # Hw
267 89 4 0 9.284 18.199 20.62 # Ow
268 90 2 0 13.658 19.381 5.022 # Hw
269 90 2 0 13.928 20.006 3.538 # Hw
270 90 4 0 13.569 19.22 4.039 # Ow
271 91 2 0 30 19.353 9.007 # Hw
272 91 2 0 28.458 18.865 8.789 # Hw
273 91 4 0 29.416 18.587 8.738 # Ow
274 92 2 0 6.056 29.979 10.371 # Hw
275 92 2 0 7.349 29.607 9.445 # Hw
276 92 4 0 6.366 29.473 9.566 # Ow
277 93 2 0 4.44 12.999 28.245 # Hw
278 93 2 0 5.577 12.94 29.415 # Hw
279 93 4 0 5.403 12.812 28.44 # Ow
280 94 2 0 8.438 10.964 24.241 # Hw
281 94 2 0 8.519 12.329 25.132 # Hw
282 94 4 0 8.13 11.913 24.311 # Ow
283 95 2 0 14.794 5.547 5.255 # Hw
284 95 2 0 15.359 6.119 3.833 # Hw
285 95 4 0 15.593 5.602 4.656 # Ow
286 96 2 0 5.284 22.072 16.748 # Hw
287 96 2 0 5.085 21.631 18.307 # Hw
288 96 4 0 5.73 21.663 17.544 # Ow
289 97 2 0 22.462 14.668 0 # Hw
290 97 2 0 24.001 14.931 0.479 # Hw
291 97 4 0 23.187 14.368 0.62 # Ow
292 98 2 0 26.253 4.854 18.84 # Hw
293 98 2 0 26.713 6.421 18.837 # Hw
294 98 4 0 26.058 5.763 19.208 # Ow
295 99 2 0 7.941 24.928 14.631 # Hw
296 99 2 0 8.393 26.497 14.603 # Hw
297 99 4 0 8.712 25.554 14.513 # Ow
298 100 2 0 28.254 1.669 19.074 # Hw
299 100 2 0 28.206 3.15 19.76 # Hw
300 100 4 0 27.764 2.54 19.103 # Ow
301 101 2 0 13.232 7.96 11.171 # Hw
302 101 2 0 14.385 8.049 12.324 # Hw
303 101 4 0 13.453 7.75 12.124 # Ow
304 102 2 0 8.949 13.526 0.708 # Hw
305 102 2 0 9.566 12.014 0.709 # Hw
306 102 4 0 8.723 12.551 0.704 # Ow
307 103 2 0 17.23 29.955 25.853 # Hw
308 103 2 0 18.083 29.99 24.461 # Hw
309 103 4 0 17.392 29.49 24.983 # Ow
310 104 2 0 8.76 28.93 28.502 # Hw
311 104 2 0 8.005 27.495 28.692 # Hw
312 104 4 0 8.203 28.376 29.121 # Ow
313 105 2 0 10.292 8.806 24.626 # Hw
314 105 2 0 10.57 10.01 25.693 # Hw
315 105 4 0 10.355 9.039 25.597 # Ow
316 106 2 0 14.926 30 23.879 # Hw
317 106 2 0 14.681 29.126 25.236 # Hw
318 106 4 0 14.277 29.792 24.61 # Ow
319 107 2 0 29.902 22.146 22.792 # Hw
320 107 2 0 29.415 20.602 23.003 # Hw
321 107 4 0 30.097 21.191 22.57 # Ow
322 108 2 0 18.264 15.396 14.826 # Hw
323 108 2 0 19.892 15.451 14.945 # Hw
324 108 4 0 19.071 15.981 14.736 # Ow
325 109 2 0 14.505 11.774 30.023 # Hw
326 109 2 0 12.881 11.734 29.864 # Hw
327 109 4 0 13.711 11.178 29.902 # Ow
328 110 2 0 7.331 7.281 10.393 # Hw
329 110 2 0 6.142 8.365 10.672 # Hw
330 110 4 0 7.122 8.252 10.512 # Ow
331 111 2 0 22.444 30.001 9.506 # Hw
332 111 2 0 24.074 29.996 9.411 # Hw
333 111 4 0 23.259 29.422 9.482 # Ow
334 112 2 0 19.401 21.191 4.164 # Hw
335 112 2 0 19.599 20.543 2.678 # Hw
336 112 4 0 19.591 21.393 3.203 # Ow
337 113 2 0 28.726 26.454 3.885 # Hw
338 113 2 0 27.594 27.631 3.906 # Hw
339 113 4 0 28.099 26.974 4.465 # Ow
340 114 2 0 19.539 1.419 27.388 # Hw
341 114 2 0 20.585 2.671 27.468 # Hw
342 114 4 0 19.69 2.336 27.759 # Ow
343 115 2 0 27.529 16.565 23.717 # Hw
344 115 2 0 29.077 17.045 23.911 # Hw
345 115 4 0 28.397 16.36 24.17 # Ow
346 116 2 0 9.857 2.283 6.987 # Hw
347 116 2 0 9.315 1.236 8.117 # Hw
348 116 4 0 9.258 2.175 7.781 # Ow
349 117 2 0 10.594 20.893 2.931 # Hw
350 117 2 0 10.574 19.81 4.153 # Hw
351 117 4 0 10.083 20.569 3.728 # Ow
352 118 2 0 11.78 10.897 2.304 # Hw
353 118 2 0 12.623 12.188 2.841 # Hw
354 118 4 0 12.105 11.38 3.117 # Ow
355 119 2 0 26.862 25.49 25.533 # Hw
356 119 2 0 26.602 26.985 24.931 # Hw
357 119 4 0 26.578 26.422 25.756 # Ow
358 120 2 0 12.232 21.02 19.144 # Hw
359 120 2 0 11.346 19.753 18.618 # Hw
360 120 4 0 11.344 20.74 18.779 # Ow
361 121 2 0 12.479 5.964 16.293 # Hw
362 121 2 0 13.551 6.835 17.165 # Hw
363 121 4 0 12.582 6.708 16.954 # Ow
364 122 2 0 26.756 25.843 22.25 # Hw
365 122 2 0 27.221 27.041 21.243 # Hw
366 122 4 0 26.481 26.705 21.824 # Ow
367 123 2 0 1.692 18.227 19.264 # Hw
368 123 2 0 2.16 19.751 19.619 # Hw
369 123 4 0 1.587 18.985 19.908 # Ow
370 124 2 0 29.005 3.564 11.238 # Hw
371 124 2 0 28.927 5.123 10.757 # Hw
372 124 4 0 28.779 4.496 11.522 # Ow
373 125 2 0 20.356 10.65 29.987 # Hw
374 125 2 0 20.555 9.03 30.001 # Hw
375 125 4 0 21.027 9.91 29.969 # Ow
376 126 2 0 11.659 0.004 7.024 # Hw
377 126 2 0 13.127 0.72 7.046 # Hw
378 126 4 0 12.165 0.822 7.298 # Ow
379 127 2 0 15.403 29.399 16.553 # Hw
380 127 2 0 15.865 28.001 17.258 # Hw
381 127 4 0 15.701 28.459 16.386 # Ow
382 128 2 0 19.767 19.103 27.074 # Hw
383 128 2 0 21.112 18.562 26.323 # Hw
384 128 4 0 20.207 18.306 26.661 # Ow
385 129 2 0 17.425 21.036 1.069 # Hw
386 129 2 0 16.201 20.532 2.025 # Hw
387 129 4 0 16.49 20.68 1.08 # Ow
388 130 2 0 7.349 5.67 0.001 # Hw
389 130 2 0 8.182 4.271 0.125 # Hw
390 130 4 0 8.262 5.266 0.059 # Ow
391 131 2 0 25.292 11.988 14.81 # Hw
392 131 2 0 26.41 10.855 14.445 # Hw
393 131 4 0 26.217 11.836 14.462 # Ow
394 132 2 0 18.662 23.798 20.347 # Hw
395 132 2 0 19.789 22.631 20.159 # Hw
396 132 4 0 18.826 22.863 20.031 # Ow
397 133 2 0 10.173 30.002 16.43 # Hw
398 133 2 0 11.806 30.003 16.384 # Hw
399 133 4 0 10.99 29.425 16.404 # Ow
400 134 2 0 9.91 8.921 19.179 # Hw
401 134 2 0 11.529 8.839 18.983 # Hw
402 134 4 0 10.666 8.35 18.86 # Ow
403 135 2 0 29.992 19.692 3.287 # Hw
404 135 2 0 29.394 18.174 3.23 # Hw
405 135 4 0 29.161 19.139 3.346 # Ow
406 136 2 0 26.011 14.564 15.459 # Hw
407 136 2 0 26.856 13.601 16.471 # Hw
408 136 4 0 26.92 14.357 15.821 # Ow
409 137 2 0 13.815 7.549 19.807 # Hw
410 137 2 0 13.157 7.389 21.293 # Hw
411 137 4 0 13.363 6.917 20.436 # Ow
412 138 2 0 24.316 30 6.589 # Hw
413 138 2 0 22.759 30 6.097 # Hw
414 138 4 0 23.71 29.961 5.794 # Ow
415 139 2 0 11.051 9.375 21.639 # Hw
416 139 2 0 9.816 10.438 21.537 # Hw
417 139 4 0 10.153 9.621 22.004 # Ow
418 140 2 0 27.078 9.553 17.113 # Hw
419 140 2 0 27.946 10.883 16.735 # Hw
420 140 4 0 27.075 10.553 17.096 # Ow
421 141 2 0 8.341 5.98 24.017 # Hw
422 141 2 0 7.083 7.021 24.009 # Hw
423 141 4 0 7.344 6.056 23.992 # Ow
424 142 2 0 22.733 3.378 25.903 # Hw
425 142 2 0 21.501 3.094 24.87 # Hw
426 142 4 0 22.013 3.803 25.355 # Ow
427 143 2 0 9.746 2.804 27.058 # Hw
428 143 2 0 8.568 3.672 26.332 # Hw
429 143 4 0 8.944 2.755 26.462 # Ow
430 144 2 0 25.891 6.302 10.438 # Hw
431 144 2 0 26.477 5.947 11.921 # Hw
432 144 4 0 26.055 5.568 11.098 # Ow
433 145 2 0 22.063 26.737 1.86 # Hw
434 145 2 0 20.591 26.129 2.221 # Hw
435 145 4 0 21.381 26.048 1.614 # Ow
436 146 2 0 10.843 15.926 6.358 # Hw
437 146 2 0 10.097 16.922 7.415 # Hw
438 146 4 0 10.092 16.576 6.478 # Ow
439 147 2 0 27.43 9.255 20.763 # Hw
440 147 2 0 26.488 10.373 21.489 # Hw
441 147 4 0 27.429 10.113 21.277 # Ow
442 148 2 0 2.089 11.272 24.048 # Hw
443 148 2 0 0.593 11.494 23.434 # Hw
444 148 4 0 1.571 11.546 23.238 # Ow
445 149 2 0 8.52 7.71 27.154 # Hw
446 149 2 0 7.803 6.317 26.693 # Hw
447 149 4 0 7.653 7.212 27.111 # Ow
448 150 2 0 3.454 21.333 1.928 # Hw
449 150 2 0 3.675 20.704 3.419 # Hw
450 150 4 0 4.135 21.015 2.588 # Ow
451 151 2 0 30.002 14.774 10.484 # Hw
452 151 2 0 29.132 16.148 10.629 # Hw
453 151 4 0 29.188 15.263 10.169 # Ow
454 152 2 0 20.508 -0 13.997 # Hw
455 152 2 0 22.134 -0 14.154 # Hw
456 152 4 0 21.303 0.542 14.271 # Ow
457 153 2 0 0.022 27.268 9.847 # Hw
458 153 2 0 1.351 28.21 9.743 # Hw
459 153 4 0 1.022 27.272 9.841 # Ow
460 154 2 0 22.923 23.268 13.493 # Hw
461 154 2 0 22.032 24.617 13.266 # Hw
462 154 4 0 22.274 23.725 12.885 # Ow
463 155 2 0 15.654 17.735 28.153 # Hw
464 155 2 0 14.333 17.197 27.358 # Hw
465 155 4 0 15.115 17.818 27.315 # Ow
466 156 2 0 8.259 8.264 0.05 # Hw
467 156 2 0 9.492 9.334 0.089 # Hw
468 156 4 0 9.252 8.364 0.105 # Ow
469 157 2 0 8.245 19.813 25.639 # Hw
470 157 2 0 9.844 19.95 25.937 # Hw
471 157 4 0 9.125 20.099 25.26 # Ow
472 158 2 0 6.564 8.203 4.2 # Hw
473 158 2 0 7.508 8.556 2.916 # Hw
474 158 4 0 7.413 8.643 3.907 # Ow
475 159 2 0 5.322 18.346 24.784 # Hw
476 159 2 0 4.189 17.171 24.829 # Hw
477 159 4 0 4.341 18.156 24.752 # Ow
478 160 2 0 10.735 1.09 3.677 # Hw
479 160 2 0 11.946 -0.006 3.708 # Hw
480 160 4 0 10.955 0.114 3.667 # Ow
481 161 2 0 11.205 3.966 24.762 # Hw
482 161 2 0 9.92 3.359 23.957 # Hw
483 161 4 0 10.425 4.192 24.178 # Ow
484 162 2 0 4.601 7.632 26.842 # Hw
485 162 2 0 5.068 6.068 26.836 # Hw
486 162 4 0 4.855 6.858 26.263 # Ow
487 163 2 0 23.057 7.487 12.076 # Hw
488 163 2 0 23.94 6.38 12.89 # Hw
489 163 4 0 23.649 6.686 11.984 # Ow
490 164 2 0 2.413 -0.004 2.641 # Hw
491 164 2 0 0.859 -0.001 2.138 # Hw
492 164 4 0 1.522 0.44 2.742 # Ow
493 165 2 0 8.935 25.049 11.773 # Hw
494 165 2 0 9.486 23.514 11.696 # Hw
495 165 4 0 8.854 24.132 12.162 # Ow
496 166 2 0 10.631 23.611 14.194 # Hw
497 166 2 0 11.163 24.949 13.424 # Hw
498 166 4 0 11.415 24.216 14.055 # Ow
499 167 2 0 14.934 12.565 4.519 # Hw
500 167 2 0 15.554 11.054 4.558 # Hw
501 167 4 0 14.711 11.59 4.528 # Ow
502 168 2 0 8.66 2.495 10.472 # Hw
503 168 2 0 8.839 3.779 11.464 # Hw
504 168 4 0 8.514 3.479 10.568 # Ow
505 169 2 0 23.157 5.002 8.187 # Hw
506 169 2 0 23.347 4.061 9.508 # Hw
507 169 4 0 23.399 4.996 9.157 # Ow
508 170 2 0 6.105 21.498 29.95 # Hw
509 170 2 0 7.607 22.09 29.698 # Hw
510 170 4 0 6.681 22.315 30 # Ow
511 171 2 0 17.84 23.185 6.682 # Hw
512 171 2 0 18.513 24.034 5.46 # Hw
513 171 4 0 18.571 23.194 5.999 # Ow
514 172 2 0 20.798 21.665 27.165 # Hw
515 172 2 0 19.667 22.827 27.36 # Hw
516 172 4 0 19.826 21.841 27.322 # Ow
517 173 2 0 16.33 0.026 6.076 # Hw
518 173 2 0 17.664 0.933 5.821 # Hw
519 173 4 0 17.303 0.002 5.847 # Ow
520 174 2 0 25.194 15.928 10.559 # Hw
521 174 2 0 26.562 15.907 9.668 # Hw
522 174 4 0 25.625 15.565 9.733 # Ow
523 175 2 0 26.677 0.761 0.821 # Hw
524 175 2 0 26.169 0.014 2.181 # Hw
525 175 4 0 26.096 0.845 1.631 # Ow
526 176 2 0 18.112 6.382 17.135 # Hw
527 176 2 0 19.707 6.293 17.475 # Hw
528 176 4 0 18.851 5.778 17.435 # Ow
529 177 2 0 -0.001 7.041 7.873 # Hw
530 177 2 0 1.4 7.815 7.55 # Hw
531 177 4 0 0.937 6.929 7.545 # Ow
532 178 2 0 22.104 15.025 29.963 # Hw
533 178 2 0 20.698 14.194 29.938 # Hw
534 178 4 0 21.691 14.115 30.016 # Ow
535 179 2 0 29.34 12.402 20.455 # Hw
536 179 2 0 28.001 12.43 19.52 # Hw
537 179 4 0 28.884 11.987 19.667 # Ow
538 180 2 0 24.757 19.599 2.155 # Hw
539 180 2 0 25.499 20.984 2.601 # Hw
540 180 4 0 25.638 20.02 2.374 # Ow
541 181 2 0 25.427 16.507 7.109 # Hw
542 181 2 0 25.873 18.071 7.261 # Hw
543 181 4 0 26.202 17.128 7.231 # Ow
544 182 2 0 27.915 14.89 7.414 # Hw
545 182 2 0 29.488 14.77 6.993 # Hw
546 182 4 0 28.605 15.165 6.743 # Ow
547 183 2 0 26.551 18.618 21.915 # Hw
548 183 2 0 28.036 18.926 21.309 # Hw
549 183 4 0 27.503 18.819 22.148 # Ow
550 184 2 0 29.964 19.498 25.828 # Hw
551 184 2 0 29.966 21.125 25.688 # Hw
552 184 4 0 29.388 20.311 25.737 # Ow
553 185 2 0 11.623 0.084 0.003 # Hw
554 185 2 0 11.931 1.15 1.201 # Hw
555 185 4 0 11.558 0.248 0.988 # Ow
556 186 2 0 8.758 14.013 13.935 # Hw
557 186 2 0 8.487 12.698 13.006 # Hw
558 186 4 0 9.186 13.322 13.353 # Ow
559 187 2 0 0.011 7.917 4.962 # Hw
560 187 2 0 0 8.021 3.333 # Hw
561 187 4 0 0.092 8.539 4.183 # Ow
562 188 2 0 25.878 17.898 0.295 # Hw
563 188 2 0 26.642 16.486 0 # Hw
564 188 4 0 25.963 16.942 0.574 # Ow
565 189 2 0 23.079 23.625 21.104 # Hw
566 189 2 0 22.048 22.872 22.123 # Hw
567 189 4 0 22.116 23.49 21.341 # Ow
568 190 2 0 30.004 18.383 6.061 # Hw
569 190 2 0 28.39 18.171 5.933 # Hw
570 190 4 0 29.276 17.709 5.937 # Ow
571 191 2 0 19.471 17.366 0.011 # Hw
572 191 2 0 18.485 18.668 -0 # Hw
573 191 4 0 19.424 18.357 0.143 # Ow
574 192 2 0 1.716 0.143 11.516 # Hw
575 192 2 0 2.816 -0.005 10.319 # Hw
576 192 4 0 1.847 0.121 10.525 # Ow
577 193 2 0 7.628 8.99 20.717 # Hw
578 193 2 0 7.071 10.008 21.866 # Hw
579 193 4 0 6.971 9.099 21.463 # Ow
580 194 2 0 8.295 24.737 17.451 # Hw
581 194 2 0 7.161 24.026 18.386 # Hw
582 194 4 0 8.003 24.564 18.392 # Ow
583 195 2 0 -0.001 2.266 10.127 # Hw
584 195 2 0 0.229 1.61 8.65 # Hw
585 195 4 0 0.593 2.252 9.323 # Ow
586 196 2 0 24.39 9.49 17.684 # Hw
587 196 2 0 24.537 9.661 16.067 # Hw
588 196 4 0 24.323 10.133 16.921 # Ow
589 197 2 0 23.791 2.294 28.466 # Hw
590 197 2 0 24.254 1.897 29.981 # Hw
591 197 4 0 24.199 2.637 29.312 # Ow
592 198 2 0 21.053 13.027 5.414 # Hw
593 198 2 0 20.458 14.501 5.787 # Hw
594 198 4 0 20.409 13.741 5.139 # Ow
595 199 2 0 6.516 19.016 18.816 # Hw
596 199 2 0 6.145 17.554 18.19 # Hw
597 199 4 0 6.835 18.277 18.223 # Ow
598 200 2 0 23.977 5.795 25.497 # Hw
599 200 2 0 22.542 6.566 25.39 # Hw
600 200 4 0 23.332 6.391 25.976 # Ow
601 201 2 0 5.471 21.183 12.09 # Hw
602 201 2 0 4.974 21.07 13.641 # Hw
603 201 4 0 4.78 20.795 12.7 # Ow
604 202 2 0 23.439 17.902 21.23 # Hw
605 202 2 0 22.985 17.253 19.802 # Hw
606 202 4 0 23.737 17.348 20.453 # Ow
607 203 2 0 28.97 15.865 1.744 # Hw
608 203 2 0 28.029 14.891 2.656 # Hw
609 203 4 0 28.125 15.81 2.276 # Ow
610 204 2 0 27.668 23.914 5.843 # Hw
611 204 2 0 28.487 23.284 4.578 # Hw
612 204 4 0 28.477 23.392 5.572 # Ow
613 205 2 0 20.12 21.133 13.971 # Hw
614 205 2 0 19.179 21.855 15.094 # Hw
615 205 4 0 20.12 21.647 14.829 # Ow
616 206 2 0 6.781 10.737 -0.001 # Hw
617 206 2 0 5.175 10.446 0.021 # Hw
618 206 4 0 6.077 10.058 0.207 # Ow
619 207 2 0 6.967 19.885 23.206 # Hw
620 207 2 0 7.167 20.656 21.78 # Hw
621 207 4 0 7.583 20.46 22.667 # Ow
622 208 2 0 5.945 0.678 1.774 # Hw
623 208 2 0 5.21 0.289 3.179 # Hw
624 208 4 0 5.891 -0 2.508 # Ow
625 209 2 0 24.128 17.993 24.312 # Hw
626 209 2 0 25.146 19.266 24.206 # Hw
627 209 4 0 25.088 18.269 24.25 # Ow
628 210 2 0 20.235 21.08 6.813 # Hw
629 210 2 0 18.723 20.642 7.246 # Hw
630 210 4 0 19.67 20.333 7.163 # Ow
631 211 2 0 11.871 13.081 24.282 # Hw
632 211 2 0 10.821 12.212 23.382 # Hw
633 211 4 0 10.921 13.008 23.978 # Ow
634 212 2 0 14.443 7.971 29.842 # Hw
635 212 2 0 16.065 7.872 30.001 # Hw
636 212 4 0 15.232 7.358 29.801 # Ow
637 213 2 0 29.269 27.669 19.52 # Hw
638 213 2 0 28.357 27.991 18.204 # Hw
639 213 4 0 28.541 28.248 19.152 # Ow
640 214 2 0 12.98 18.333 20.314 # Hw
641 214 2 0 13.253 17.405 18.998 # Hw
642 214 4 0 12.868 17.421 19.92 # Ow
643 215 2 0 11.696 4.683 12.58 # Hw
644 215 2 0 11.997 5.934 13.586 # Hw
645 215 4 0 11.55 5.66 12.735 # Ow
646 216 2 0 9.44 13.388 21.315 # Hw
647 216 2 0 8.07 12.561 21.64 # Hw
648 216 4 0 8.687 12.866 20.915 # Ow
649 217 2 0 22.083 21.829 4.28 # Hw
650 217 2 0 22.566 20.425 3.598 # Hw
651 217 4 0 22.875 21.266 4.041 # Ow
652 218 2 0 -0.007 5.543 2.152 # Hw
653 218 2 0 1.333 5.505 3.086 # Hw
654 218 4 0 0.755 4.975 2.466 # Ow
655 219 2 0 12.23 23.185 20.863 # Hw
656 219 2 0 13.708 23.408 20.205 # Hw
657 219 4 0 12.779 23.772 20.268 # Ow
658 220 2 0 25.83 15.982 21.618 # Hw
659 220 2 0 25.321 15.133 22.917 # Hw
660 220 4 0 25.068 15.466 22.009 # Ow
661 221 2 0 20.688 4.756 29.822 # Hw
662 221 2 0 20.866 6.345 29.492 # Hw
663 221 4 0 20.33 5.673 30 # Ow
664 222 2 0 3.89 14.894 23.317 # Hw
665 222 2 0 2.545 14.103 22.835 # Hw
666 222 4 0 3.175 14.848 22.619 # Ow
667 223 2 0 -0.004 23.666 11.433 # Hw
668 223 2 0 0.665 24.577 10.255 # Hw
669 223 4 0 0.106 23.77 10.445 # Ow
670 224 2 0 17.753 28.7 30.001 # Hw
671 224 2 0 16.782 30 29.821 # Hw
672 224 4 0 16.803 29.013 29.976 # Ow
673 225 2 0 14.064 11.714 9.771 # Hw
674 225 2 0 13.179 10.342 9.797 # Hw
675 225 4 0 13.253 11.272 10.155 # Ow
676 226 2 0 21.967 11.201 7.692 # Hw
677 226 2 0 22.574 10.32 8.927 # Hw
678 226 4 0 22.321 11.24 8.627 # Ow
679 227 2 0 1.511 23.474 18.822 # Hw
680 227 2 0 2.037 24.785 19.641 # Hw
681 227 4 0 1.364 24.45 18.983 # Ow
682 228 2 0 11.676 0.1 14.481 # Hw
683 228 2 0 12.764 0.025 13.266 # Hw
684 228 4 0 12.646 0 14.258 # Ow
685 229 2 0 9.248 8.231 12.254 # Hw
686 229 2 0 9.077 9.732 12.872 # Hw
687 229 4 0 9.736 9.034 12.596 # Ow
688 230 2 0 29.166 12.154 10.493 # Hw
689 230 2 0 27.871 13.002 11.016 # Hw
690 230 4 0 28.187 12.109 10.697 # Ow
691 231 2 0 3.888 27.134 10.471 # Hw
692 231 2 0 5.445 27.279 10.939 # Hw
693 231 4 0 4.787 26.697 10.463 # Ow
694 232 2 0 10.661 29.692 9.898 # Hw
695 232 2 0 12.265 29.997 9.854 # Hw
696 232 4 0 11.571 29.278 9.876 # Ow
697 233 2 0 25.673 21.639 29.73 # Hw
698 233 2 0 24.5 21.105 28.726 # Hw
699 233 4 0 25.461 21.006 28.985 # Ow
700 234 2 0 22.375 0.727 16.848 # Hw
701 234 2 0 23.912 0.268 17.15 # Hw
702 234 4 0 23.041 -0.013 16.75 # Ow
703 235 2 0 6.602 11.152 14.628 # Hw
704 235 2 0 5.686 10.991 15.97 # Hw
705 235 4 0 6.389 10.561 15.406 # Ow
706 236 2 0 27.414 24.122 28.918 # Hw
707 236 2 0 27.912 23.63 27.442 # Hw
708 236 4 0 27.175 23.576 28.115 # Ow
709 237 2 0 2.926 7.337 11.717 # Hw
710 237 2 0 2.074 7.686 13.066 # Hw
711 237 4 0 2.235 7.943 12.114 # Ow
712 238 2 0 13.691 6.533 8.866 # Hw
713 238 2 0 13.599 4.918 9.085 # Hw
714 238 4 0 13.114 5.724 8.749 # Ow
715 239 2 0 3.371 9.268 28.679 # Hw
716 239 2 0 2.993 8.383 29.998 # Hw
717 239 4 0 3.067 8.371 29.002 # Ow
718 240 2 0 24.511 26.289 30.016 # Hw
719 240 2 0 24.838 27.886 29.913 # Hw
720 240 4 0 24.109 27.203 29.948 # Ow
721 241 2 0 18.655 19.408 17.863 # Hw
722 241 2 0 17.665 20.399 17.023 # Hw
723 241 4 0 18.284 20.335 17.806 # Ow
724 242 2 0 19.234 25.938 7.504 # Hw
725 242 2 0 19.733 27.492 7.486 # Hw
726 242 4 0 20.01 26.549 7.665 # Ow
727 243 2 0 22.068 19.776 15.359 # Hw
728 243 2 0 23.072 18.856 14.457 # Hw
729 243 4 0 22.309 18.84 15.102 # Ow
730 244 2 0 17.566 10.337 25.502 # Hw
731 244 2 0 16.254 9.511 24.987 # Hw
732 244 4 0 16.633 10.421 25.151 # Ow
733 245 2 0 24.51 9.292 0.637 # Hw
734 245 2 0 25.51 8.075 0.208 # Hw
735 245 4 0 25.307 8.754 0.912 # Ow
736 246 2 0 2.718 30.006 11.93 # Hw
737 246 2 0 1.628 29.99 13.146 # Hw
738 246 4 0 1.744 29.962 12.154 # Ow
739 247 2 0 15.957 0.732 15.005 # Hw
740 247 2 0 14.873 0.563 16.215 # Hw
741 247 4 0 15.17 0.207 15.329 # Ow
742 248 2 0 20.847 16.71 2.3 # Hw
743 248 2 0 20.097 17.881 3.157 # Hw
744 248 4 0 20.283 16.9 3.104 # Ow
745 249 2 0 24.143 2.747 13.876 # Hw
746 249 2 0 24.743 2.043 15.222 # Hw
747 249 4 0 24.45 1.885 14.28 # Ow
748 250 2 0 16.935 0.207 23.476 # Hw
749 250 2 0 15.375 0.684 23.563 # Hw
750 250 4 0 16.12 0.437 22.943 # Ow
751 251 2 0 19.958 21.051 -0 # Hw
752 251 2 0 21.544 21.435 0.065 # Hw
753 251 4 0 20.887 20.682 0.042 # Ow
754 252 2 0 24.3 5.355 1.374 # Hw
755 252 2 0 23.559 3.9 1.376 # Hw
756 252 4 0 24.443 4.365 1.376 # Ow
757 253 2 0 8.829 4.312 21.62 # Hw
758 253 2 0 7.518 5.24 21.326 # Hw
759 253 4 0 7.829 4.336 21.618 # Ow
760 254 2 0 7.416 22.333 13.664 # Hw
761 254 2 0 7.702 20.725 13.63 # Hw
762 254 4 0 8.009 21.616 13.297 # Ow
763 255 2 0 15.712 2.119 29.33 # Hw
764 255 2 0 16.435 3.524 29.74 # Hw
765 255 4 0 15.559 3.083 29.547 # Ow
766 256 2 0 16.171 10.669 19.893 # Hw
767 256 2 0 15.396 9.562 20.81 # Hw
768 256 4 0 16.024 9.692 20.043 # Ow
769 257 2 0 20.677 14.136 9.119 # Hw
770 257 2 0 19.535 15.3 9.026 # Hw
771 257 4 0 20.514 15.123 9.118 # Ow
772 258 2 0 15.429 0.845 8.542 # Hw
773 258 2 0 15.244 -0.002 9.926 # Hw
774 258 4 0 14.982 0.055 8.963 # Ow
775 259 2 0 17.177 27.472 6.471 # Hw
776 259 2 0 18.151 28.097 5.319 # Hw
777 259 4 0 17.702 27.266 5.646 # Ow
778 260 2 0 3.799 8.795 5.363 # Hw
779 260 2 0 4.375 9.732 6.571 # Hw
780 260 4 0 4.553 9.387 5.65 # Ow
781 261 2 0 16.211 10.511 14.451 # Hw
782 261 2 0 17.619 9.725 14.711 # Hw
783 261 4 0 17.189 10.623 14.63 # Ow
784 262 2 0 2.731 29.835 24.683 # Hw
785 262 2 0 4.209 29.945 25.37 # Hw
786 262 4 0 3.225 29.999 25.538 # Ow
787 263 2 0 4.622 22.177 23.62 # Hw
788 263 2 0 5.842 23.221 23.322 # Hw
789 263 4 0 5.584 22.256 23.357 # Ow
790 264 2 0 5.304 11.461 19.332 # Hw
791 264 2 0 6.927 11.333 19.46 # Hw
792 264 4 0 6.072 10.822 19.38 # Ow
793 265 2 0 17.972 6.203 20.59 # Hw
794 265 2 0 17.188 5.217 19.55 # Hw
795 265 4 0 17.387 6.17 19.779 # Ow
796 266 2 0 22.318 7.163 17.353 # Hw
797 266 2 0 22.771 7.302 15.79 # Hw
798 266 4 0 22.072 7.544 16.462 # Ow
799 267 2 0 11.179 17.443 22.587 # Hw
800 267 2 0 11.169 16.112 21.641 # Hw
801 267 4 0 11.339 16.456 22.564 # Ow
802 268 2 0 19.653 15.755 24.285 # Hw
803 268 2 0 19.907 14.144 24.365 # Hw
804 268 4 0 20.268 15.041 24.619 # Ow
805 269 2 0 18.763 26.878 27.567 # Hw
806 269 2 0 17.175 27.207 27.764 # Hw
807 269 4 0 17.898 27.045 27.093 # Ow
808 270 2 0 0.647 9.893 13.877 # Hw
809 270 2 0 1.477 10.536 12.627 # Hw
810 270 4 0 0.639 10.06 12.891 # Ow
811 271 2 0 3.588 22.125 29.037 # Hw
812 271 2 0 4.074 23.353 29.998 # Hw
813 271 4 0 3.423 23.078 29.292 # Ow
814 272 2 0 23.91 17.763 27.973 # Hw
815 272 2 0 22.418 17.188 28.304 # Hw
816 272 4 0 23.371 16.937 28.136 # Ow
817 273 2 0 7.247 5.824 2.744 # Hw
818 273 2 0 8.131 5.031 3.865 # Hw
819 273 4 0 8.078 5.854 3.301 # Ow
820 274 2 0 17.689 6.387 8.392 # Hw
821 274 2 0 16.602 7.575 8.667 # Hw
822 274 4 0 17.24 6.938 9.097 # Ow