LAMMPS data file -- atom_style full -- generated by chemfiles
2250 atoms
1500 bonds
750 angles
0 dihedrals
0 impropers
2 atom types
1 bond types
1 angle types
0 dihedral types
0 improper types
0 32 xlo xhi
0 32 ylo yhi
0 32 zlo zhi

# Pair Coeffs
# 1 Hw
# 2 Ow

# Bond Coeffs
# 1 Hw-Ow

# Angle Coeffs
# 1 Hw-Ow-Hw

Masses

1 1.008 # Hw
2 15.999 # Ow

Atoms # full

1 1 1 0 6.515 8.953 13.233 # Hw
2 1 1 0 5.713 7.53 13.236 # Hw
3 1 2 0 6.506 8.021 13.596 # Ow
4 2 1 0 3.128 24.544 0.332 # Hw
5 2 1 0 3.35 24.327 1.935 # Hw
6 2 2 0 3.793 24.307 1.04 # Ow
7 3 1 0 15.75 27.981 27.579 # Hw
8 3 1 0 14.821 29.311 27.397 # Hw
9 3 2 0 14.816 28.336 27.616 # Ow
10 4 1 0 22.554 0.487 25.476 # Hw
11 4 1 0 21.732 -0 26.801 # Hw
12 4 2 0 22.509 0.537 26.474 # Ow
13 5 1 0 6.025 15.436 15.526 # Hw
14 5 1 0 5.182 15.635 16.91 # Hw
15 5 2 0 5.864 15.072 16.443 # Ow
16 6 1 0 6.573 14.417 19.017 # Hw
17 6 1 0 7.463 15.633 19.647 # Hw
18 6 2 0 7.456 14.659 19.419 # Ow
19 7 1 0 13.899 18.582 16.025 # Hw
20 7 1 0 13.691 16.965 15.934 # Hw
21 7 2 0 14.356 17.695 16.085 # Ow
22 8 1 0 7.486 4.9 6.848 # Hw
23 8 1 0 6.198 5.665 6.197 # Hw
24 8 2 0 6.505 5.074 6.942 # Ow
25 9 1 0 21.532 2.27 29.946 # Hw
26 9 1 0 21.215 0.767 29.39 # Hw
27 9 2 0 20.903 1.494 30.001 # Ow
28 10 1 0 13.356 2.643 14.066 # Hw
29 10 1 0 13.557 3.338 15.53 # Hw
30 10 2 0 12.899 3.138 14.804 # Ow
31 11 1 0 19.63 20.8 21.354 # Hw
32 11 1 0 18.023 20.511 21.332 # Hw
33 11 2 0 18.724 21.222 21.38 # Ow
34 12 1 0 -0.003 30.004 26.877 # Hw
35 12 1 0 0.378 29.974 25.289 # Hw
36 12 2 0 0.148 29.413 26.084 # Ow
37 13 1 0 11.076 9.19 9.83 # Hw
38 13 1 0 11.398 10.174 8.567 # Hw
39 13 2 0 11.544 9.262 8.949 # Ow
40 14 1 0 26.687 22.192 8.075 # Hw
41 14 1 0 26.743 22.518 9.674 # Hw
42 14 2 0 26.928 22.879 8.761 # Ow
43 15 1 0 18.773 17.683 29.777 # Hw
44 15 1 0 19.601 16.44 29.117 # Hw
45 15 2 0 19.302 16.857 29.974 # Ow
46 16 1 0 5.346 17.522 3.864 # Hw
47 16 1 0 6.974 17.407 3.927 # Hw
48 16 2 0 6.206 18.01 3.712 # Ow
49 17 1 0 -0.001 18.292 -0.002 # Hw
50 17 1 0 -0.001 18.503 1.617 # Hw
51 17 2 0 0.386 17.973 0.864 # Ow
52 18 1 0 9.701 17.928 3.309 # Hw
53 18 1 0 8.838 17.751 1.934 # Hw
54 18 2 0 9.201 18.412 2.59 # Ow
55 19 1 0 21.944 21.596 10.718 # Hw
56 19 1 0 22.588 20.735 11.947 # Hw
57 19 2 0 21.8 20.825 11.339 # Ow
58 20 1 0 17.088 7.35 12.875 # Hw
59 20 1 0 16.609 7.249 14.433 # Hw
60 20 2 0 17.214 6.861 13.739 # Ow
61 21 1 0 17.396 15.292 27.941 # Hw
62 21 1 0 17.418 16.666 27.058 # Hw
63 21 2 0 17.119 16.253 27.918 # Ow
64 22 1 0 10.314 27.595 19.463 # Hw
65 22 1 0 8.911 27.543 20.298 # Hw
66 22 2 0 9.472 28.091 19.677 # Ow
67 23 1 0 4.074 6.447 17.603 # Hw
68 23 1 0 3.739 4.911 17.162 # Hw
69 23 2 0 4.424 5.638 17.131 # Ow
70 24 1 0 2.375 6.006 19.72 # Hw
71 24 1 0 0.805 5.671 19.419 # Hw
72 24 2 0 1.458 6.396 19.637 # Ow
73 25 1 0 6.921 30 15.958 # Hw
74 25 1 0 5.856 28.762 15.989 # Hw
75 25 2 0 6.736 29.074 15.631 # Ow
76 26 1 0 7.438 29.767 18.893 # Hw
77 26 1 0 7.03 28.257 18.424 # Hw
78 26 2 0 6.69 29.185 18.575 # Ow
79 27 1 0 18.871 10.421 1.392 # Hw
80 27 1 0 20.18 11.38 1.572 # Hw
81 27 2 0 19.231 11.234 1.849 # Ow
82 28 1 0 4.899 -0.007 15.347 # Hw
83 28 1 0 6.14 0.433 16.313 # Hw
84 28 2 0 5.191 0.123 16.295 # Ow
85 29 1 0 -0.006 21.888 3.113 # Hw
86 29 1 0 0.941 20.559 3.179 # Hw
87 29 2 0 -0.001 20.888 3.119 # Ow
88 30 1 0 19.119 17.982 8.885 # Hw
89 30 1 0 18.86 16.815 7.772 # Hw
90 30 2 0 18.54 17.694 8.122 # Ow
91 31 1 0 14.804 19.328 24.129 # Hw
92 31 1 0 16.24 19.825 23.53 # Hw
93 31 2 0 15.354 20.126 23.878 # Ow
94 32 1 0 7.305 -0.007 5.121 # Hw
95 32 1 0 8.86 -0.078 5.612 # Hw
96 32 2 0 8.259 0.029 4.822 # Ow
97 33 1 0 7.397 13.757 3.203 # Hw
98 33 1 0 6.422 14.719 4.091 # Hw
99 33 2 0 7.268 14.188 4.096 # Ow
100 34 1 0 8.103 15.207 6.508 # Hw
101 34 1 0 7.452 15.111 8.003 # Hw
102 34 2 0 8.222 15.46 7.469 # Ow
103 35 1 0 20.738 28.064 -0.002 # Hw
104 35 1 0 19.84 28.549 1.273 # Hw
105 35 2 0 20.534 28.828 0.61 # Ow
106 36 1 0 3.542 1.452 21.692 # Hw
107 36 1 0 2.012 1.546 22.252 # Hw
108 36 2 0 2.607 1.116 21.574 # Ow
109 37 1 0 15.944 27.319 22.539 # Hw
110 37 1 0 16.935 28.575 22.214 # Hw
111 37 2 0 16.641 27.668 21.913 # Ow
112 38 1 0 0.649 12.332 3.934 # Hw
113 38 1 0 1.659 13.584 4.214 # Hw
114 38 2 0 1.554 12.71 3.74 # Ow
115 39 1 0 20.508 23.513 1.567 # Hw
116 39 1 0 19.677 24.427 0.498 # Hw
117 39 2 0 19.645 23.606 1.069 # Ow
118 40 1 0 -0 27.485 14.038 # Hw
119 40 1 0 -0.003 25.968 13.433 # Hw
120 40 2 0 0.398 26.879 13.349 # Ow
121 41 1 0 21.912 26.129 16.846 # Hw
122 41 1 0 22.43 27.238 17.927 # Hw
123 41 2 0 22.715 26.597 17.216 # Ow
124 42 1 0 16.421 8.799 5.796 # Hw
125 42 1 0 17.231 7.384 5.888 # Hw
126 42 2 0 16.407 7.872 6.173 # Ow
127 43 1 0 17.726 3.559 21.907 # Hw
128 43 1 0 16.111 3.344 22.005 # Hw
129 43 2 0 16.835 4.003 21.809 # Ow
130 44 1 0 4.277 29.995 7.906 # Hw
131 44 1 0 3.346 30.002 9.247 # Hw
132 44 2 0 3.743 29.427 8.533 # Ow
133 45 1 0 13.941 13.221 22.052 # Hw
134 45 1 0 14.205 14.746 22.571 # Hw
135 45 2 0 13.51 14.044 22.422 # Ow
136 46 1 0 3.178 27.64 17.888 # Hw
137 46 1 0 3.948 28.815 18.721 # Hw
138 46 2 0 4.069 28.046 18.094 # Ow
139 47 1 0 22.364 8.714 5.811 # Hw
140 47 1 0 22.373 7.63 7.032 # Hw
141 47 2 0 22.763 7.858 6.14 # Ow
142 48 1 0 18.387 -0.042 10.122 # Hw
143 48 1 0 18.344 0.474 8.574 # Hw
144 48 2 0 17.79 0.175 9.35 # Ow
145 49 1 0 17.048 1.653 20.047 # Hw
146 49 1 0 18.455 2.324 19.562 # Hw
147 49 2 0 18.026 1.493 19.914 # Ow
148 50 1 0 25.803 17.099 4.821 # Hw
149 50 1 0 26.338 18.294 3.845 # Hw
150 50 2 0 26.615 17.568 4.473 # Ow
151 51 1 0 4.082 9.299 2.455 # Hw
152 51 1 0 5.206 10.446 2.755 # Hw
153 51 2 0 4.231 10.275 2.615 # Ow
154 52 1 0 23.593 17.437 15.434 # Hw
155 52 1 0 22.717 16.959 16.727 # Hw
156 52 2 0 22.793 16.914 15.731 # Ow
157 53 1 0 12.328 12.228 0.182 # Hw
158 53 1 0 11.699 13.645 0.695 # Hw
159 53 2 0 11.822 13.046 -0.095 # Ow
160 54 1 0 24.037 20.415 17.307 # Hw
161 54 1 0 24.497 18.875 17.596 # Hw
162 54 2 0 24.447 19.596 16.905 # Ow
163 55 1 0 29.412 11.943 13.319 # Hw
164 55 1 0 28.841 12.134 14.837 # Hw
165 55 2 0 28.589 11.947 13.888 # Ow
166 56 1 0 25.947 25.557 13.473 # Hw
167 56 1 0 25.565 24.04 13.003 # Hw
168 56 2 0 26.309 24.643 13.287 # Ow
169 57 1 0 29.171 9.857 25.559 # Hw
170 57 1 0 29.803 11.34 25.817 # Hw
171 57 2 0 30.018 10.372 25.694 # Ow
172 58 1 0 29.367 3.643 4.372 # Hw
173 58 1 0 28.938 2.069 4.441 # Hw
174 58 2 0 29.667 2.706 4.195 # Ow
175 59 1 0 27.43 9.43 12.651 # Hw
176 59 1 0 27.133 8.708 11.217 # Hw
177 59 2 0 27.525 9.514 11.659 # Ow
178 60 1 0 3.375 18.842 27.272 # Hw
179 60 1 0 4.551 19.576 28.135 # Hw
180 60 2 0 4.322 19.164 27.254 # Ow
181 61 1 0 0.067 20.537 14.846 # Hw
182 61 1 0 0.029 19.31 13.769 # Hw
183 61 2 0 -0.027 20.301 13.878 # Ow
184 62 1 0 1.613 15.104 25.182 # Hw
185 62 1 0 2.392 15.919 26.364 # Hw
186 62 2 0 1.854 15.103 26.153 # Ow
187 63 1 0 18.881 24.359 10.116 # Hw
188 63 1 0 17.423 24.341 9.381 # Hw
189 63 2 0 18.029 23.847 10.002 # Ow
190 64 1 0 7.513 29.723 5.22 # Hw
191 64 1 0 7.692 28.278 4.48 # Hw
192 64 2 0 8.138 29.147 4.691 # Ow
193 65 1 0 24.163 25.376 24.051 # Hw
194 65 1 0 24.286 23.846 23.494 # Hw
195 65 2 0 23.869 24.741 23.337 # Ow
196 66 1 0 12.279 20.386 23.879 # Hw
197 66 1 0 12.921 21.662 23.088 # Hw
198 66 2 0 12.818 21.223 23.979 # Ow
199 67 1 0 25.605 15.098 28.241 # Hw
200 67 1 0 25.167 14.63 29.743 # Hw
201 67 2 0 25.087 15.353 29.058 # Ow
202 68 1 0 -0.002 11.986 9.617 # Hw
203 68 1 0 0.937 10.679 9.895 # Hw
204 68 2 0 0.94 11.661 9.708 # Ow
205 69 1 0 23.788 5.374 5.563 # Hw
206 69 1 0 24.869 6.134 6.522 # Hw
207 69 2 0 24.758 5.577 5.7 # Ow
208 70 1 0 6.664 2.296 8.398 # Hw
209 70 1 0 6.144 3.599 9.234 # Hw
210 70 2 0 5.875 2.719 8.845 # Ow
211 71 1 0 23.161 18.86 29.753 # Hw
212 71 1 0 21.65 19.384 29.424 # Hw
213 71 2 0 22.2 18.805 30.025 # Ow
214 72 1 0 15.577 22.317 9.591 # Hw
215 72 1 0 15.51 23.178 10.977 # Hw
216 72 2 0 15.077 23.025 10.09 # Ow
217 73 1 0 15.89 4.78 7.671 # Hw
218 73 1 0 15.473 3.335 7.035 # Hw
219 73 2 0 15.597 3.848 7.884 # Ow
220 74 1 0 2.513 28.833 21.707 # Hw
221 74 1 0 3.518 30 21.165 # Hw
222 74 2 0 2.657 29.82 21.639 # Ow
223 75 1 0 27.744 8.461 23.313 # Hw
224 75 1 0 26.215 8.725 23.823 # Hw
225 75 2 0 27.159 9.048 23.873 # Ow
226 76 1 0 22.438 26.98 22.633 # Hw
227 76 1 0 23.904 27.099 21.924 # Hw
228 76 2 0 23.094 27.608 22.213 # Ow
229 77 1 0 24.76 12.167 17.894 # Hw
230 77 1 0 23.686 12.735 18.984 # Hw
231 77 2 0 24.188 11.927 18.678 # Ow
232 78 1 0 22.639 10.273 20.373 # Hw
233 78 1 0 21.696 9.959 19.077 # Hw
234 78 2 0 22.413 9.596 19.671 # Ow
235 79 1 0 25.044 20.434 10.25 # Hw
236 79 1 0 24.184 19.466 9.256 # Hw
237 79 2 0 24.186 20.337 9.745 # Ow
238 80 1 0 17.568 6.151 0.331 # Hw
239 80 1 0 16.232 5.275 -0.003 # Hw
240 80 2 0 16.585 6.067 0.493 # Ow
241 81 1 0 15.537 13.548 16.183 # Hw
242 81 1 0 16.899 13.409 15.294 # Hw
243 81 2 0 15.906 13.509 15.255 # Ow
244 82 1 0 17.677 22.593 16.971 # Hw
245 82 1 0 17.649 23.433 15.571 # Hw
246 82 2 0 17.29 23.387 16.503 # Ow
247 83 1 0 30.003 16.149 15.538 # Hw
248 83 1 0 29.918 14.523 15.669 # Hw
249 83 2 0 29.385 15.364 15.583 # Ow
250 84 1 0 0.001 14.119 20.629 # Hw
251 84 1 0 0.493 15.662 20.42 # Hw
252 84 2 0 0.792 14.71 20.466 # Ow
253 85 1 0 29.969 7.841 27.967 # Hw
254 85 1 0 28.794 6.766 27.607 # Hw
255 85 2 0 29.754 6.87 27.868 # Ow
256 86 1 0 5.375 13.337 7.682 # Hw
257 86 1 0 5.924 11.8 7.724 # Hw
258 86 2 0 5.123 12.384 7.849 # Ow
259 87 1 0 30 8.275 11.801 # Hw
260 87 1 0 30 6.856 12.609 # Hw
261 87 2 0 29.425 7.584 12.239 # Ow
262 88 1 0 21.885 16.941 7.342 # Hw
263 88 1 0 20.977 17.954 6.44 # Hw
264 88 2 0 21.388 17.808 7.339 # Ow
265 89 1 0 8.755 18.59 20.389 # Hw
266 89 1 0 8.053 17.625 21.503 # Hw
267 89 2 0 8.922 17.902 21.095 # Ow
268 90 1 0 13.61 19.196 4.94 # Hw
269 90 1 0 13.867 20.343 3.806 # Hw
270 90 2 0 13.635 19.382 3.958 # Ow
271 91 1 0 27.899 20.042 9.371 # Hw
272 91 1 0 28.208 18.453 9.153 # Hw
273 91 2 0 28.618 19.361 9.227 # Ow
274 92 1 0 5.843 29.634 10.338 # Hw
275 92 1 0 7.233 29.337 9.535 # Hw
276 92 2 0 6.261 29.113 9.593 # Ow
277 93 1 0 4.629 13.205 28.168 # Hw
278 93 1 0 6.001 13.125 29.05 # Hw
279 93 2 0 5.583 12.905 28.169 # Ow
280 94 1 0 7.997 11.179 23.771 # Hw
281 94 1 0 8.315 12.186 25.017 # Hw
282 94 2 0 7.915 12.119 24.104 # Ow
283 95 1 0 14.756 5.425 5.251 # Hw
284 95 1 0 15.236 6.229 3.913 # Hw
285 95 2 0 15.529 5.617 4.647 # Ow
286 96 1 0 5.212 21.814 17.016 # Hw
287 96 1 0 4.96 21.461 18.59 # Hw
288 96 2 0 5.608 21.393 17.833 # Ow
289 97 1 0 22.669 14.918 -0.001 # Hw
290 97 1 0 24.178 15.265 0.52 # Hw
291 97 2 0 23.39 14.663 0.645 # Ow
292 98 1 0 25.973 4.881 18.7 # Hw
293 98 1 0 26.588 6.393 18.771 # Hw
294 98 2 0 25.856 5.794 19.094 # Ow
295 99 1 0 7.894 25.334 14.918 # Hw
296 99 1 0 8.865 26.647 14.951 # Hw
297 99 2 0 8.841 25.648 14.987 # Ow
298 100 1 0 28.264 1.831 19.006 # Hw
299 100 1 0 28.087 3.354 19.568 # Hw
300 100 2 0 27.692 2.652 18.978 # Ow
301 101 1 0 13.94 8.239 11.449 # Hw
302 101 1 0 14.391 8.019 13.003 # Hw
303 101 2 0 13.674 7.845 12.329 # Ow
304 102 1 0 8.969 13.539 0.957 # Hw
305 102 1 0 9.513 11.999 0.956 # Hw
306 102 2 0 8.697 12.576 0.963 # Ow
307 103 1 0 17.246 29.421 25.777 # Hw
308 103 1 0 17.973 30.001 24.435 # Hw
309 103 2 0 17.491 29.219 24.829 # Ow
310 104 1 0 8.636 28.662 28.124 # Hw
311 104 1 0 7.773 27.276 28.09 # Hw
312 104 2 0 8.024 28.068 28.646 # Ow
313 105 1 0 10.175 8.851 24.234 # Hw
314 105 1 0 10.024 10.054 25.328 # Hw
315 105 2 0 10.048 9.063 25.204 # Ow
316 106 1 0 14.959 29.925 24.023 # Hw
317 106 1 0 14.843 28.481 24.775 # Hw
318 106 2 0 14.336 29.29 24.48 # Ow
319 107 1 0 29.477 22.506 22.782 # Hw
320 107 1 0 29.435 20.874 22.805 # Hw
321 107 2 0 30.019 21.673 22.67 # Ow
322 108 1 0 18.786 15.398 15.094 # Hw
323 108 1 0 20.359 15.671 15.436 # Hw
324 108 2 0 19.564 16.004 14.93 # Ow
325 109 1 0 14.614 12.515 30.02 # Hw
326 109 1 0 13.035 12.098 29.996 # Hw
327 109 2 0 13.971 11.749 30.003 # Ow
328 110 1 0 7.264 7.391 10.564 # Hw
329 110 1 0 5.935 8.337 10.617 # Hw
330 110 2 0 6.934 8.334 10.587 # Ow
331 111 1 0 22.287 30 9.535 # Hw
332 111 1 0 23.917 30 9.44 # Hw
333 111 2 0 23.104 29.424 9.511 # Ow
334 112 1 0 20.211 21.104 4.043 # Hw
335 112 1 0 20.003 20.31 2.631 # Hw
336 112 2 0 20.199 21.198 3.047 # Ow
337 113 1 0 28.583 26.26 3.961 # Hw
338 113 1 0 27.543 27.519 3.93 # Hw
339 113 2 0 27.998 26.85 4.517 # Ow
340 114 1 0 19.597 1.688 27.366 # Hw
341 114 1 0 20.323 3.127 27.63 # Hw
342 114 2 0 19.537 2.555 27.862 # Ow
343 115 1 0 27.257 16.53 23.517 # Hw
344 115 1 0 28.809 16.975 23.762 # Hw
345 115 2 0 28.103 16.311 24.005 # Ow
346 116 1 0 9.394 2.567 6.138 # Hw
347 116 1 0 9.244 1.808 7.576 # Hw
348 116 2 0 9.047 2.648 7.072 # Ow
349 117 1 0 10.521 20.805 2.884 # Hw
350 117 1 0 10.935 20.164 4.328 # Hw
351 117 2 0 10.261 20.723 3.846 # Ow
352 118 1 0 11.778 11.242 2.688 # Hw
353 118 1 0 12.696 12.553 3.012 # Hw
354 118 2 0 12.294 11.723 3.397 # Ow
355 119 1 0 26.522 25.378 25.561 # Hw
356 119 1 0 26.372 26.852 24.874 # Hw
357 119 2 0 26.272 26.333 25.722 # Ow
358 120 1 0 13.043 20.463 18.455 # Hw
359 120 1 0 11.551 19.888 18.787 # Hw
360 120 2 0 12.093 20.715 18.641 # Ow
361 121 1 0 14.44 5.942 15.502 # Hw
362 121 1 0 14.219 6.358 17.065 # Hw
363 121 2 0 13.772 6.004 16.244 # Ow
364 122 1 0 26.907 25.221 21.944 # Hw
365 122 1 0 27.046 26.609 21.095 # Hw
366 122 2 0 26.424 26.038 21.629 # Ow
367 123 1 0 1.883 18.089 19.135 # Hw
368 123 1 0 2.42 19.506 19.744 # Hw
369 123 2 0 1.905 18.674 19.946 # Ow
370 124 1 0 28.889 3.796 11.35 # Hw
371 124 1 0 28.662 5.307 10.773 # Hw
372 124 2 0 28.596 4.724 11.582 # Ow
373 125 1 0 20.226 10.657 29.993 # Hw
374 125 1 0 20.308 9.026 30.002 # Hw
375 125 2 0 20.843 9.87 29.985 # Ow
376 126 1 0 11.539 0.349 7.173 # Hw
377 126 1 0 12.917 1.224 7.237 # Hw
378 126 2 0 11.928 1.247 7.382 # Ow
379 127 1 0 16.097 28.693 14.94 # Hw
380 127 1 0 15.522 27.818 16.193 # Hw
381 127 2 0 15.792 27.786 15.231 # Ow
382 128 1 0 19.91 18.605 27.45 # Hw
383 128 1 0 20.535 18.043 26.05 # Hw
384 128 2 0 19.877 17.863 26.78 # Ow
385 129 1 0 17.359 20.932 1.29 # Hw
386 129 1 0 16.162 20.462 2.297 # Hw
387 129 2 0 16.408 20.625 1.342 # Ow
388 130 1 0 7.353 5.679 -0.077 # Hw
389 130 1 0 8.141 4.256 0.061 # Hw
390 130 2 0 8.252 5.246 -0.012 # Ow
391 131 1 0 24.817 11.823 15.098 # Hw
392 131 1 0 26.041 10.93 14.49 # Hw
393 131 2 0 25.663 11.852 14.566 # Ow
394 132 1 0 18.783 23.683 20.154 # Hw
395 132 1 0 19.934 22.828 19.373 # Hw
396 132 2 0 18.986 23.143 19.337 # Ow
397 133 1 0 10.015 29.713 16.805 # Hw
398 133 1 0 11.522 29.783 16.18 # Hw
399 133 2 0 10.776 29.173 16.446 # Ow
400 134 1 0 9.085 8.685 19.12 # Hw
401 134 1 0 10.712 8.593 19.008 # Hw
402 134 2 0 9.855 8.096 18.874 # Ow
403 135 1 0 29.665 20.166 3.427 # Hw
404 135 1 0 29.211 18.599 3.365 # Hw
405 135 2 0 28.887 19.539 3.47 # Ow
406 136 1 0 25.808 15.214 15.465 # Hw
407 136 1 0 26.372 13.902 16.257 # Hw
408 136 2 0 26.63 14.747 15.791 # Ow
409 137 1 0 13.517 7.876 19.243 # Hw
410 137 1 0 12.78 7.941 20.698 # Hw
411 137 2 0 12.993 7.355 19.917 # Ow
412 138 1 0 24.28 29.881 6.448 # Hw
413 138 1 0 22.845 29.838 5.67 # Hw
414 138 2 0 23.834 29.743 5.563 # Ow
415 139 1 0 10.659 9.867 21.445 # Hw
416 139 1 0 9.217 10.588 21.187 # Hw
417 139 2 0 9.681 9.834 21.651 # Ow
418 140 1 0 26.475 8.771 17.283 # Hw
419 140 1 0 27.353 10.033 16.733 # Hw
420 140 2 0 26.586 9.765 17.315 # Ow
421 141 1 0 7.907 6.209 23.689 # Hw
422 141 1 0 6.347 6.691 23.694 # Hw
423 141 2 0 6.956 5.899 23.696 # Ow
424 142 1 0 22.577 3.432 26.038 # Hw
425 142 1 0 21.34 3.219 24.993 # Hw
426 142 2 0 21.876 3.897 25.496 # Ow
427 143 1 0 9.777 2.92 27.009 # Hw
428 143 1 0 8.537 3.735 26.328 # Hw
429 143 2 0 8.965 2.838 26.431 # Ow
430 144 1 0 25.874 6.363 10.527 # Hw
431 144 1 0 26.02 6.353 12.154 # Hw
432 144 2 0 26.013 5.785 11.332 # Ow
433 145 1 0 22.342 26.455 2.133 # Hw
434 145 1 0 20.745 26.178 2.33 # Hw
435 145 2 0 21.523 26.064 1.713 # Ow
436 146 1 0 11.168 16.172 6.21 # Hw
437 146 1 0 9.936 17.242 6.268 # Hw
438 146 2 0 10.377 16.535 5.717 # Ow
439 147 1 0 26.94 9.537 20.913 # Hw
440 147 1 0 26.021 10.676 21.638 # Hw
441 147 2 0 26.957 10.368 21.47 # Ow
442 148 1 0 2.286 10.975 24.177 # Hw
443 148 1 0 0.82 11.361 23.569 # Hw
444 148 2 0 1.802 11.346 23.384 # Ow
445 149 1 0 8.323 7.812 26.995 # Hw
446 149 1 0 7.743 6.36 26.524 # Hw
447 149 2 0 7.506 7.238 26.938 # Ow
448 150 1 0 3.366 21.484 2.271 # Hw
449 150 1 0 3.674 20.416 3.467 # Hw
450 150 2 0 4.084 20.977 2.749 # Ow
451 151 1 0 29.742 14.9 10.509 # Hw
452 151 1 0 28.912 16.293 10.703 # Hw
453 151 2 0 28.896 15.386 10.285 # Ow
454 152 1 0 20.563 -0.006 14.112 # Hw
455 152 1 0 22.189 -0.006 14.262 # Hw
456 152 2 0 21.36 0.546 14.355 # Ow
457 153 1 0 0.093 27.212 9.875 # Hw
458 153 1 0 1.5 28.036 9.784 # Hw
459 153 2 0 1.089 27.129 9.873 # Ow
460 154 1 0 22.384 22.773 14.232 # Hw
461 154 1 0 22.062 24.086 13.316 # Hw
462 154 2 0 22.276 23.11 13.297 # Ow
463 155 1 0 15.353 18.745 27.65 # Hw
464 155 1 0 14.756 17.357 27.029 # Hw
465 155 2 0 15.119 18.261 26.806 # Ow
466 156 1 0 8.234 8.246 0.363 # Hw
467 156 1 0 9.473 9.31 0.389 # Hw
468 156 2 0 9.229 8.34 0.4 # Ow
469 157 1 0 8.402 19.711 25.463 # Hw
470 157 1 0 10.007 19.508 25.243 # Hw
471 157 2 0 9.122 19.569 24.784 # Ow
472 158 1 0 6.158 7.736 3.81 # Hw
473 158 1 0 7.43 8.414 3.042 # Hw
474 158 2 0 6.837 8.47 3.844 # Ow
475 159 1 0 5.459 18.417 24.75 # Hw
476 159 1 0 4.301 17.279 24.927 # Hw
477 159 2 0 4.48 18.228 24.67 # Ow
478 160 1 0 10.584 1.2 3.646 # Hw
479 160 1 0 11.685 -0.002 3.744 # Hw
480 160 2 0 10.718 0.209 3.607 # Ow
481 161 1 0 10.579 4.039 24.436 # Hw
482 161 1 0 9.363 3.203 23.736 # Hw
483 161 2 0 9.746 4.114 23.887 # Ow
484 162 1 0 4.258 7.994 26.414 # Hw
485 162 1 0 4.804 6.582 27.026 # Hw
486 162 2 0 4.637 7.097 26.186 # Ow
487 163 1 0 22.415 6.511 12.949 # Hw
488 163 1 0 23.68 5.561 13.352 # Hw
489 163 2 0 23.221 6.032 12.6 # Ow
490 164 1 0 2.749 -0.019 3.46 # Hw
491 164 1 0 1.246 -0.005 2.822 # Hw
492 164 2 0 1.853 0.423 3.491 # Ow
493 165 1 0 9.095 24.974 11.95 # Hw
494 165 1 0 9.359 23.363 11.928 # Hw
495 165 2 0 9.007 24.125 12.47 # Ow
496 166 1 0 10.763 23.44 14.637 # Hw
497 166 1 0 11.398 24.638 13.726 # Hw
498 166 2 0 11.559 24.032 14.505 # Ow
499 167 1 0 14.96 12.383 4.561 # Hw
500 167 1 0 15.97 11.209 4.04 # Hw
501 167 2 0 15.049 11.403 4.379 # Ow
502 168 1 0 8.648 2.621 10.275 # Hw
503 168 1 0 8.875 3.668 11.507 # Hw
504 168 2 0 8.549 3.573 10.567 # Ow
505 169 1 0 23.06 4.911 8.193 # Hw
506 169 1 0 23.423 3.971 9.478 # Hw
507 169 2 0 23.39 4.91 9.137 # Ow
508 170 1 0 6.52 21.735 30.001 # Hw
509 170 1 0 8.034 21.995 29.447 # Hw
510 170 2 0 7.284 22.38 29.983 # Ow
511 171 1 0 17.933 23.272 6.899 # Hw
512 171 1 0 17.659 24.299 5.66 # Hw
513 171 2 0 18.27 23.591 6.013 # Ow
514 172 1 0 20.771 21.036 26.498 # Hw
515 172 1 0 19.917 22.307 27.065 # Hw
516 172 2 0 19.934 21.313 26.97 # Ow
517 173 1 0 16.519 0.05 6.361 # Hw
518 173 1 0 17.724 1.08 5.966 # Hw
519 173 2 0 17.449 0.12 5.998 # Ow
520 174 1 0 25.379 16.869 10.25 # Hw
521 174 1 0 26.172 15.674 9.469 # Hw
522 174 2 0 25.273 16.058 9.674 # Ow
523 175 1 0 26.878 2.668 0.006 # Hw
524 175 1 0 26.458 1.701 1.253 # Hw
525 175 2 0 26.295 2.584 0.814 # Ow
526 176 1 0 18.139 6.303 16.512 # Hw
527 176 1 0 19.69 6.302 17.022 # Hw
528 176 2 0 18.849 5.764 16.965 # Ow
529 177 1 0 0.313 6.789 7.521 # Hw
530 177 1 0 1.709 7.579 7.218 # Hw
531 177 2 0 1.258 6.687 7.211 # Ow
532 178 1 0 22.474 15.146 29.957 # Hw
533 178 1 0 21.073 14.312 30.048 # Hw
534 178 2 0 22.05 14.246 29.849 # Ow
535 179 1 0 29.019 12.233 20.178 # Hw
536 179 1 0 27.775 11.927 19.165 # Hw
537 179 2 0 28.71 11.672 19.41 # Ow
538 180 1 0 24.997 19.671 1.878 # Hw
539 180 1 0 25.6 21.178 1.706 # Hw
540 180 2 0 25.834 20.21 1.787 # Ow
541 181 1 0 25.197 17.663 7.443 # Hw
542 181 1 0 26.141 18.995 7.383 # Hw
543 181 2 0 26.14 17.995 7.4 # Ow
544 182 1 0 27.862 15.083 7.382 # Hw
545 182 1 0 29.427 14.915 6.949 # Hw
546 182 2 0 28.554 15.335 6.705 # Ow
547 183 1 0 26.694 18.713 21.935 # Hw
548 183 1 0 28.184 18.938 21.307 # Hw
549 183 2 0 27.655 18.883 22.153 # Ow
550 184 1 0 29.766 19.388 25.753 # Hw
551 184 1 0 29.86 21.001 25.519 # Hw
552 184 2 0 29.238 20.223 25.599 # Ow
553 185 1 0 11.469 -0.011 -0.041 # Hw
554 185 1 0 11.805 1.007 1.191 # Hw
555 185 2 0 11.415 0.119 0.949 # Ow
556 186 1 0 7.97 14.521 13.811 # Hw
557 186 1 0 8.4 12.993 13.428 # Hw
558 186 2 0 8.739 13.916 13.605 # Ow
559 187 1 0 0.105 7.88 5.006 # Hw
560 187 1 0 0.004 8.014 3.381 # Hw
561 187 2 0 0.139 8.516 4.235 # Ow
562 188 1 0 26.348 18.184 -0 # Hw
563 188 1 0 26.572 16.567 0.041 # Hw
564 188 2 0 26.015 17.323 0.384 # Ow
565 189 1 0 22.626 23.567 21.183 # Hw
566 189 1 0 21.758 22.43 21.969 # Hw
567 189 2 0 21.704 23.269 21.43 # Ow
568 190 1 0 30.028 18.352 7.094 # Hw
569 190 1 0 28.837 18.022 6.027 # Hw
570 190 2 0 29.759 17.776 6.322 # Ow
571 191 1 0 18.737 17.131 -0.005 # Hw
572 191 1 0 18.364 18.721 0.001 # Hw
573 191 2 0 19.112 18.058 0.011 # Ow
574 192 1 0 1.989 0.042 11.369 # Hw
575 192 1 0 2.837 0.001 9.974 # Hw
576 192 2 0 1.92 0.005 10.372 # Ow
577 193 1 0 7.4 8.347 21.27 # Hw
578 193 1 0 6.694 9.698 21.857 # Hw
579 193 2 0 6.648 8.7 21.827 # Ow
580 194 1 0 8.129 25.682 17.852 # Hw
581 194 1 0 8.847 24.395 18.554 # Hw
582 194 2 0 8.564 25.344 18.687 # Ow
583 195 1 0 0.22 2.315 9.756 # Hw
584 195 1 0 0.76 1.556 8.415 # Hw
585 195 2 0 0.966 2.262 9.093 # Ow
586 196 1 0 23.982 9.582 16.455 # Hw
587 196 1 0 22.644 10.429 16.055 # Hw
588 196 2 0 23.238 10.15 16.808 # Ow
589 197 1 0 23.827 2.387 28.436 # Hw
590 197 1 0 24.264 1.959 29.95 # Hw
591 197 2 0 24.313 2.68 29.259 # Ow
592 198 1 0 21.26 13.301 5.665 # Hw
593 198 1 0 20.767 14.823 5.991 # Hw
594 198 2 0 20.648 14.039 5.382 # Ow
595 199 1 0 6.247 19.121 19.242 # Hw
596 199 1 0 5.869 17.643 18.658 # Hw
597 199 2 0 6.585 18.338 18.719 # Ow
598 200 1 0 23.904 5.745 25.321 # Hw
599 200 1 0 22.54 6.639 25.228 # Hw
600 200 2 0 23.295 6.361 25.821 # Ow
601 201 1 0 5.261 21.3 11.931 # Hw
602 201 1 0 4.598 21.615 13.389 # Hw
603 201 2 0 4.533 21.048 12.569 # Ow
604 202 1 0 22.548 17.737 20.359 # Hw
605 202 1 0 21.747 18.162 19.001 # Hw
606 202 2 0 22.639 17.92 19.38 # Ow
607 203 1 0 28.604 16.364 1.882 # Hw
608 203 1 0 27.944 15.193 2.809 # Hw
609 203 2 0 27.833 16.127 2.473 # Ow
610 204 1 0 27.563 23.703 5.942 # Hw
611 204 1 0 28.192 23.081 4.569 # Hw
612 204 2 0 28.311 23.161 5.558 # Ow
613 205 1 0 20.078 21.299 14.493 # Hw
614 205 1 0 18.474 21.004 14.58 # Hw
615 205 2 0 19.284 21.272 15.101 # Ow
616 206 1 0 6.907 10.731 -0.009 # Hw
617 206 1 0 5.294 10.476 0.007 # Hw
618 206 2 0 6.186 10.074 0.213 # Ow
619 207 1 0 7.069 19.769 22.933 # Hw
620 207 1 0 7.443 20.731 21.667 # Hw
621 207 2 0 7.739 20.416 22.568 # Ow
622 208 1 0 5.845 0.517 1.565 # Hw
623 208 1 0 5.444 0.428 3.145 # Hw
624 208 2 0 5.952 -0.013 2.406 # Ow
625 209 1 0 23.83 17.965 24.468 # Hw
626 209 1 0 25.086 18.96 24.153 # Hw
627 209 2 0 24.815 18.009 24.297 # Ow
628 210 1 0 20.197 21.399 6.798 # Hw
629 210 1 0 18.762 20.656 7.035 # Hw
630 210 2 0 19.751 20.522 6.978 # Ow
631 211 1 0 11.694 12.74 24.022 # Hw
632 211 1 0 10.525 12.043 23.12 # Hw
633 211 2 0 10.718 12.745 23.804 # Ow
634 212 1 0 15.199 6.613 29.359 # Hw
635 212 1 0 16.45 7.585 29.756 # Hw
636 212 2 0 16.195 6.68 29.417 # Ow
637 213 1 0 29.135 27.518 19.555 # Hw
638 213 1 0 28.153 27.905 18.309 # Hw
639 213 2 0 28.405 28.13 19.249 # Ow
640 214 1 0 13.352 18.327 20.158 # Hw
641 214 1 0 13.33 17.735 18.636 # Hw
642 214 2 0 12.952 17.635 19.556 # Ow
643 215 1 0 11.597 4.488 12.788 # Hw
644 215 1 0 12.736 5.491 13.392 # Hw
645 215 2 0 11.874 5.444 12.887 # Ow
646 216 1 0 9.319 14.877 21.699 # Hw
647 216 1 0 8.48 13.479 21.782 # Hw
648 216 2 0 9.262 13.937 21.361 # Ow
649 217 1 0 22.807 21.992 3.852 # Hw
650 217 1 0 22.818 20.43 3.375 # Hw
651 217 2 0 23.387 21.199 3.664 # Ow
652 218 1 0 -0.076 5.431 1.983 # Hw
653 218 1 0 1.091 5.502 3.123 # Hw
654 218 2 0 0.692 4.943 2.397 # Ow
655 219 1 0 11.145 23.32 20.168 # Hw
656 219 1 0 12.7 23.183 19.69 # Hw
657 219 2 0 11.845 23.681 19.552 # Ow
658 220 1 0 25.207 16.414 21.688 # Hw
659 220 1 0 24.793 15.453 22.942 # Hw
660 220 2 0 24.487 15.834 22.071 # Ow
661 221 1 0 20.106 4.619 30.002 # Hw
662 221 1 0 20.281 5.666 28.76 # Hw
663 221 2 0 20.092 5.584 29.738 # Ow
664 222 1 0 3.879 15.098 23.295 # Hw
665 222 1 0 2.49 14.548 22.636 # Hw
666 222 2 0 3.155 15.293 22.632 # Ow
667 223 1 0 0.278 23.998 11.445 # Hw
668 223 1 0 0.498 24.294 9.854 # Hw
669 223 2 0 -0.016 23.755 10.52 # Ow
670 224 1 0 17.548 28.931 30.001 # Hw
671 224 1 0 16.404 30 29.537 # Hw
672 224 2 0 16.564 29.105 29.953 # Ow
673 225 1 0 14.635 11.84 9.676 # Hw
674 225 1 0 13.64 10.616 10.098 # Hw
675 225 2 0 13.981 11.518 10.361 # Ow
676 226 1 0 21.312 10.709 7.383 # Hw
677 226 1 0 21.861 9.809 8.63 # Hw
678 226 2 0 21.642 10.736 8.327 # Ow
679 227 1 0 0.868 23.402 18.986 # Hw
680 227 1 0 1.251 24.697 19.904 # Hw
681 227 2 0 0.781 24.394 19.076 # Ow
682 228 1 0 11.764 0.198 14.772 # Hw
683 228 1 0 12.796 0.006 13.522 # Hw
684 228 2 0 12.712 0.008 14.518 # Ow
685 229 1 0 9.07 8.159 12.602 # Hw
686 229 1 0 9.18 9.623 13.316 # Hw
687 229 2 0 9.7 8.843 12.97 # Ow
688 230 1 0 28.739 11.945 10.561 # Hw
689 230 1 0 27.621 13.054 10.992 # Hw
690 230 2 0 27.768 12.097 10.748 # Ow
691 231 1 0 3.808 27.22 11.036 # Hw
692 231 1 0 5.422 27.066 11.226 # Hw
693 231 2 0 4.597 26.629 10.869 # Ow
694 232 1 0 10.607 29.036 9.309 # Hw
695 232 1 0 11.918 29.993 9.486 # Hw
696 232 2 0 11.602 29.048 9.411 # Ow
697 233 1 0 24.729 21.318 28.805 # Hw
698 233 1 0 23.389 20.929 27.957 # Hw
699 233 2 0 24.352 20.71 28.105 # Ow
700 234 1 0 22.118 0.703 16.995 # Hw
701 234 1 0 23.695 0.295 17.099 # Hw
702 234 2 0 22.771 -0.053 16.949 # Ow
703 235 1 0 6.607 12.608 15.477 # Hw
704 235 1 0 5.979 11.36 16.322 # Hw
705 235 2 0 6.758 11.665 15.775 # Ow
706 236 1 0 27.121 23.955 28.811 # Hw
707 236 1 0 27.651 23.484 27.34 # Hw
708 236 2 0 26.901 23.416 27.997 # Ow
709 237 1 0 3.307 7.592 11.907 # Hw
710 237 1 0 2.612 8.087 13.299 # Hw
711 237 2 0 2.692 8.265 12.319 # Ow
712 238 1 0 13.737 6.798 9.117 # Hw
713 238 1 0 13.618 5.175 9.254 # Hw
714 238 2 0 13.144 6.007 8.967 # Ow
715 239 1 0 4.83 9.657 28.551 # Hw
716 239 1 0 4.444 8.974 29.984 # Hw
717 239 2 0 4.629 8.795 29.018 # Ow
718 240 1 0 24.37 25.638 30 # Hw
719 240 1 0 24.733 27.23 30 # Hw
720 240 2 0 23.989 26.563 30 # Ow
721 241 1 0 19.608 20.167 18.457 # Hw
722 241 1 0 18.084 20.029 17.885 # Hw
723 241 2 0 18.681 20.541 18.502 # Ow
724 242 1 0 19.057 25.682 7.617 # Hw
725 242 1 0 19.596 27.224 7.596 # Hw
726 242 2 0 19.853 26.271 7.758 # Ow
727 243 1 0 21.766 19.453 16.067 # Hw
728 243 1 0 20.556 18.499 15.523 # Hw
729 243 2 0 20.794 19.233 16.159 # Ow
730 244 1 0 17.052 10.342 25.674 # Hw
731 244 1 0 15.721 9.683 24.995 # Hw
732 244 2 0 16.176 10.54 25.234 # Ow
733 245 1 0 24.302 9.439 0.628 # Hw
734 245 1 0 25.334 8.241 0.219 # Hw
735 245 2 0 25.108 8.921 0.916 # Ow
736 246 1 0 3.043 30.002 12.403 # Hw
737 246 1 0 1.853 30.013 13.521 # Hw
738 246 2 0 2.064 29.86 12.556 # Ow
739 247 1 0 16.05 1.33 14.988 # Hw
740 247 1 0 14.828 0.946 16.001 # Hw
741 247 2 0 15.296 0.695 15.154 # Ow
742 248 1 0 19.795 15.576 2.246 # Hw
743 248 1 0 20.276 17.135 2.325 # Hw
744 248 2 0 19.54 16.496 2.547 # Ow
745 249 1 0 24.236 2.209 13.7 # Hw
746 249 1 0 24.594 2.163 15.292 # Hw
747 249 2 0 24.592 1.64 14.441 # Ow
748 250 1 0 18.032 1.731 24.557 # Hw
749 250 1 0 16.408 1.797 24.396 # Hw
750 250 2 0 17.275 1.73 23.903 # Ow
751 251 1 0 19.783 21.077 -0.001 # Hw
752 251 1 0 21.378 21.427 -0 # Hw
753 251 2 0 20.704 20.689 -0.001 # Ow
754 252 1 0 24.196 5.438 1.395 # Hw
755 252 1 0 23.494 3.964 1.404 # Hw
756 252 2 0 24.366 4.453 1.404 # Ow
757 253 1 0 8.93 4.646 21.315 # Hw
758 253 1 0 7.675 5.629 20.96 # Hw
759 253 2 0 7.933 4.726 21.302 # Ow
760 254 1 0 7.257 22.292 13.541 # Hw
761 254 1 0 7.384 20.664 13.557 # Hw
762 254 2 0 7.811 21.513 13.247 # Ow
763 255 1 0 16.209 3.078 28.529 # Hw
764 255 1 0 17.371 4.045 29.148 # Hw
765 255 2 0 16.406 3.988 28.895 # Ow
766 256 1 0 15.89 10.671 20.1 # Hw
767 256 1 0 15.038 9.502 20.859 # Hw
768 256 2 0 15.797 9.684 20.234 # Ow
769 257 1 0 20.711 15.072 10.121 # Hw
770 257 1 0 19.113 14.97 9.796 # Hw
771 257 2 0 19.862 15.592 10.021 # Ow
772 258 1 0 15.301 1.081 8.6 # Hw
773 258 1 0 15.097 0.112 9.899 # Hw
774 258 2 0 14.843 0.26 8.943 # Ow
775 259 1 0 17.06 27.392 6.546 # Hw
776 259 1 0 18.103 27.784 5.353 # Hw
777 259 2 0 17.562 27.045 5.754 # Ow
778 260 1 0 4.068 8.889 5.174 # Hw
779 260 1 0 4.66 9.715 6.452 # Hw
780 260 2 0 4.83 9.447 5.505 # Ow
781 261 1 0 16.151 10.875 14.417 # Hw
782 261 1 0 17.442 9.878 14.345 # Hw
783 261 2 0 17.149 10.833 14.365 # Ow
784 262 1 0 2.913 29.464 24.353 # Hw
785 262 1 0 4.269 29.965 25.113 # Hw
786 262 2 0 3.27 30 25.119 # Ow
787 263 1 0 5.409 24.317 23.643 # Hw
788 263 1 0 6.291 23.046 23.12 # Hw
789 263 2 0 5.376 23.353 23.379 # Ow
790 264 1 0 5.624 11.293 19.048 # Hw
791 264 1 0 7.052 10.529 19.261 # Hw
792 264 2 0 6.074 10.401 19.099 # Ow
793 265 1 0 18.093 6.279 20.27 # Hw
794 265 1 0 17.654 5.003 19.35 # Hw
795 265 2 0 17.639 6 19.423 # Ow
796 266 1 0 22.258 7.279 17.109 # Hw
797 266 1 0 22.386 7.556 15.505 # Hw
798 266 2 0 21.891 7.8 16.338 # Ow
799 267 1 0 12.775 17.9 22.812 # Hw
800 267 1 0 11.745 16.983 21.938 # Hw
801 267 2 0 12.339 17.002 22.741 # Ow
802 268 1 0 19.541 16.074 24.407 # Hw
803 268 1 0 19.677 14.481 24.74 # Hw
804 268 2 0 20.074 15.384 24.898 # Ow
805 269 1 0 19.332 25.864 28.103 # Hw
806 269 1 0 17.941 26.595 28.551 # Hw
807 269 2 0 18.538 26.379 27.778 # Ow
808 270 1 0 1.288 10.632 13.609 # Hw
809 270 1 0 2.266 10.981 12.35 # Hw
810 270 2 0 1.36 10.651 12.612 # Ow
811 271 1 0 4.202 22.261 28.618 # Hw
812 271 1 0 4.209 23.225 29.936 # Hw
813 271 2 0 3.846 23.108 29.013 # Ow
814 272 1 0 23.072 18.125 27.105 # Hw
815 272 1 0 22.233 17.005 27.947 # Hw
816 272 2 0 23.074 17.181 27.435 # Ow
817 273 1 0 7.442 5.591 2.668 # Hw
818 273 1 0 7.915 5.058 4.137 # Hw
819 273 2 0 8.049 5.765 3.443 # Ow
820 274 1 0 18.058 6.979 9.322 # Hw
821 274 1 0 16.7 7.8 8.939 # Hw