 DBCSR| Multiplication driver                                               BLAS
 DBCSR| Multrec recursion limit                                              512
 DBCSR| Multiplication stack size                                           1000
 DBCSR| Maximum elements for images                                    UNLIMITED
 DBCSR| Multiplicative factor virtual images                                   1
 DBCSR| Randmat seed                                                    12341313
 DBCSR| Multiplication size stacks                                             3


  **** **** ******  **  PROGRAM STARTED AT               2017-10-13 13:42:06.914
 ***** ** ***  *** **   PROGRAM STARTED ON                               dhcppc7
 **    ****   ******    PROGRAM STARTED BY                              jdurholt
 ***** **    ** ** **   PROGRAM PROCESS ID                                 27352
  **** **  *******  **  PROGRAM STARTED IN /home/jdurholt/work/cp2k/series/ZIF-8
                                           /repeat

 CP2K| version string:                                          CP2K version 4.1
 CP2K| source code revision number:                                    svn:17462
 CP2K| cp2kflags: omp libint fftw3 libxc                                        
 CP2K| is freely available from                            https://www.cp2k.org/
 CP2K| Program compiled at                         Wed Oct  5 18:46:25 CEST 2016
 CP2K| Program compiled on                                                pc9404
 CP2K| Program compiled for                         Linux-x86-64-gfortran-static
 CP2K| Data directory path                     /home/krack/rt/released/cp2k/data
 CP2K| Input file name                                                 repeat.in

 GLOBAL| Force Environment number                                              1
 GLOBAL| Basis set file name            /home/jdurholt/sandbox/cp2k-data/BASIS_S
 GLOBAL| Potential file name            /home/jdurholt/sandbox/cp2k-data/POTENTI
 GLOBAL| MM Potential file name                                     MM_POTENTIAL
 GLOBAL| Coordinate file name                                      __STD_INPUT__
 GLOBAL| Method name                                                        CP2K
 GLOBAL| Project name                                                       ZIF8
 GLOBAL| Preferred FFT library                                             FFTW3
 GLOBAL| Preferred diagonalization lib.                                       SL
 GLOBAL| Run type                                                         ENERGY
 GLOBAL| All-to-all communication in single precision                          F
 GLOBAL| FFTs using library dependent lengths                                  F
 GLOBAL| Global print level                                               MEDIUM
 GLOBAL| Total number of message passing processes                             1
 GLOBAL| Number of threads for this process                                    1
 GLOBAL| This output is from process                                           0
 GLOBAL| CPU model name :  Intel(R) Xeon(R) CPU E5-2660 v3 @ 2.60GHz

 MEMORY| system memory details [Kb]
 MEMORY|                        rank 0           min           max       average
 MEMORY| MemTotal             32699912      32699912      32699912      32699912
 MEMORY| MemFree              30898052      30898052      30898052      30898052
 MEMORY| Buffers                  7356          7356          7356          7356
 MEMORY| Cached                1071764       1071764       1071764       1071764
 MEMORY| Slab                   222744        222744        222744        222744
 MEMORY| SReclaimable           109336        109336        109336        109336
 MEMORY| MemLikelyFree        32086508      32086508      32086508      32086508


 *** Fundamental physical constants (SI units) ***

 *** Literature: B. J. Mohr and B. N. Taylor,
 ***             CODATA recommended values of the fundamental physical
 ***             constants: 2006, Web Version 5.1
 ***             http://physics.nist.gov/constants

 Speed of light in vacuum [m/s]                             2.99792458000000E+08
 Magnetic constant or permeability of vacuum [N/A**2]       1.25663706143592E-06
 Electric constant or permittivity of vacuum [F/m]          8.85418781762039E-12
 Planck constant (h) [J*s]                                  6.62606896000000E-34
 Planck constant (h-bar) [J*s]                              1.05457162825177E-34
 Elementary charge [C]                                      1.60217648700000E-19
 Electron mass [kg]                                         9.10938215000000E-31
 Electron g factor [ ]                                     -2.00231930436220E+00
 Proton mass [kg]                                           1.67262163700000E-27
 Fine-structure constant                                    7.29735253760000E-03
 Rydberg constant [1/m]                                     1.09737315685270E+07
 Avogadro constant [1/mol]                                  6.02214179000000E+23
 Boltzmann constant [J/K]                                   1.38065040000000E-23
 Atomic mass unit [kg]                                      1.66053878200000E-27
 Bohr radius [m]                                            5.29177208590000E-11

 *** Conversion factors ***

 [u] -> [a.u.]                                              1.82288848426455E+03
 [Angstrom] -> [Bohr] = [a.u.]                              1.88972613288564E+00
 [a.u.] = [Bohr] -> [Angstrom]                              5.29177208590000E-01
 [a.u.] -> [s]                                              2.41888432650478E-17
 [a.u.] -> [fs]                                             2.41888432650478E-02
 [a.u.] -> [J]                                              4.35974393937059E-18
 [a.u.] -> [N]                                              8.23872205491840E-08
 [a.u.] -> [K]                                              3.15774647902944E+05
 [a.u.] -> [kJ/mol]                                         2.62549961709828E+03
 [a.u.] -> [kcal/mol]                                       6.27509468713739E+02
 [a.u.] -> [Pa]                                             2.94210107994716E+13
 [a.u.] -> [bar]                                            2.94210107994716E+08
 [a.u.] -> [atm]                                            2.90362800883016E+08
 [a.u.] -> [eV]                                             2.72113838565563E+01
 [a.u.] -> [Hz]                                             6.57968392072181E+15
 [a.u.] -> [1/cm] (wave numbers)                            2.19474631370540E+05
 [a.u./Bohr**2] -> [1/cm]                                   5.14048714338585E+03
 

 CELL_TOP| Volume [angstrom^3]:                                         2443.958
 CELL_TOP| Vector a [angstrom    14.697     0.000     0.000    |a| =      14.697
 CELL_TOP| Vector b [angstrom    -4.899    13.857     0.000    |b| =      14.697
 CELL_TOP| Vector c [angstrom    -4.899    -6.928    12.000    |c| =      14.697
 CELL_TOP| Angle (b,c), alpha [degree]:                                  109.471
 CELL_TOP| Angle (a,c), beta  [degree]:                                  109.471
 CELL_TOP| Angle (a,b), gamma [degree]:                                  109.471
 CELL_TOP| Numerically orthorhombic:                                          NO

 GENERATE|  Preliminary Number of Bonds generated:                             0
 GENERATE|  Achieved consistency in connectivity generation.

 CELL| Volume [angstrom^3]:                                             2443.958
 CELL| Vector a [angstrom]:      14.697     0.000     0.000    |a| =      14.697
 CELL| Vector b [angstrom]:      -4.899    13.857     0.000    |b| =      14.697
 CELL| Vector c [angstrom]:      -4.899    -6.928    12.000    |c| =      14.697
 CELL| Angle (b,c), alpha [degree]:                                      109.471
 CELL| Angle (a,c), beta  [degree]:                                      109.471
 CELL| Angle (a,b), gamma [degree]:                                      109.471
 CELL| Numerically orthorhombic:                                              NO

 CELL_REF| Volume [angstrom^3]:                                         2443.958
 CELL_REF| Vector a [angstrom    14.697     0.000     0.000    |a| =      14.697
 CELL_REF| Vector b [angstrom    -4.899    13.857     0.000    |b| =      14.697
 CELL_REF| Vector c [angstrom    -4.899    -6.928    12.000    |c| =      14.697
 CELL_REF| Angle (b,c), alpha [degree]:                                  109.471
 CELL_REF| Angle (a,c), beta  [degree]:                                  109.471
 CELL_REF| Angle (a,b), gamma [degree]:                                  109.471
 CELL_REF| Numerically orthorhombic:                                          NO

 *******************************************************************************
 *******************************************************************************
 **                                                                           **
 **     #####                         ##              ##                      **
 **    ##   ##            ##          ##              ##                      **
 **   ##     ##                       ##            ######                    **
 **   ##     ##  ##   ##  ##   #####  ##  ##   ####   ##    #####    #####    **
 **   ##     ##  ##   ##  ##  ##      ## ##   ##      ##   ##   ##  ##   ##   **
 **   ##  ## ##  ##   ##  ##  ##      ####     ###    ##   ######   ######    **
 **    ##  ###   ##   ##  ##  ##      ## ##      ##   ##   ##       ##        **
 **     #######   #####   ##   #####  ##  ##  ####    ##    #####   ##        **
 **           ##                                                    ##        **
 **                                                                           **
 **                                                ... make the atoms dance   **
 **                                                                           **
 **            Copyright (C) by CP2K developers group (2000 - 2016)           **
 **                                                                           **
 *******************************************************************************

 DFT| Spin restricted Kohn-Sham (RKS) calculation                            RKS
 DFT| Multiplicity                                                             1
 DFT| Number of spin states                                                    1
 DFT| Charge                                                                   0
 DFT| Self-interaction correction (SIC)                                       NO
 DFT| Cutoffs: density                                              1.000000E-10
 DFT|          gradient                                             1.000000E-10
 DFT|          tau                                                  1.000000E-10
 DFT|          cutoff_smoothing_range                               0.000000E+00
 DFT| XC density smoothing                                                  NONE
 DFT| XC derivatives                                                          PW
 FUNCTIONAL| ROUTINE=NEW
 FUNCTIONAL| PBE:
 FUNCTIONAL| J.P.Perdew, K.Burke, M.Ernzerhof, Phys. Rev. Letter, vol. 77, n 18,
 FUNCTIONAL|  pp. 3865-3868, (1996){spin unpolarized}                           
 vdW POTENTIAL|                                                   Pair Potential
 vdW POTENTIAL|          DFT-D3 (Version 3.1)
 vdW POTENTIAL|          Potential Form: S. Grimme et al, JCP 132: 154104 (2010)
 vdW POTENTIAL|          Zero Damping
 vdW POTENTIAL|          Cutoff Radius [Bohr]:                             30.24
 vdW POTENTIAL|          s6 Scaling Factor:                               1.0000
 vdW POTENTIAL|          sr6 Scaling Factor:                              1.2170
 vdW POTENTIAL|          s8 Scaling Factor:                               0.7220
 vdW POTENTIAL|          Cutoff for CN calculation:                   0.1000E-05

 QS| Method:                                                                 GPW
 QS| Density plane wave grid type                        NON-SPHERICAL FULLSPACE
 QS| Number of grid levels:                                                    4
 QS| Density cutoff [a.u.]:                                               1250.0
 QS| Multi grid cutoff [a.u.]: 1) grid level                              1250.0
 QS|                           2) grid level                               416.7
 QS|                           3) grid level                               138.9
 QS|                           4) grid level                                46.3
 QS| Grid level progression factor:                                          3.0
 QS| Relative density cutoff [a.u.]:                                        50.0
 QS| Consistent realspace mapping and integration 
 QS| Interaction thresholds: eps_pgf_orb:                                1.0E-05
 QS|                         eps_filter_matrix:                          0.0E+00
 QS|                         eps_core_charge:                            1.0E-12
 QS|                         eps_rho_gspace:                             1.0E-10
 QS|                         eps_rho_rspace:                             1.0E-10
 QS|                         eps_gvg_rspace:                             1.0E-05
 QS|                         eps_ppl:                                    1.0E-02
 QS|                         eps_ppnl:                                   1.0E-07


 ATOMIC KIND INFORMATION

  1. Atomic kind: Zn                                    Number of atoms:       6

     Orbital Basis Set                                        DZVP-MOLOPT-SR-GTH

       Number of orbital shell sets:                                           1
       Number of orbital shells:                                               7
       Number of primitive Cartesian functions:                                6
       Number of Cartesian basis functions:                                   30
       Number of spherical basis functions:                                   25
       Norm type:                                                              2

       Normalised Cartesian orbitals:

                        Set   Shell   Orbital            Exponent    Coefficient

                          1       1    2s                6.400813       0.070678
                                                         3.167793      -0.182901
                                                         1.341704       0.275787
                                                         0.545418       0.070077
                                                         0.222222      -0.163015
                                                         0.079830      -0.058340

                          1       2    3s                6.400813       0.159300
                                                         3.167793      -0.240359
                                                         1.341704      -0.028572
                                                         0.545418      -0.590243
                                                         0.222222       0.705234
                                                         0.079830      -0.232595

                          1       3    3px               6.400813       0.044197
                                                         3.167793      -0.065115
                                                         1.341704       0.233173
                                                         0.545418      -0.041743
                                                         0.222222      -0.119659
                                                         0.079830      -0.031199
                          1       3    3py               6.400813       0.044197
                                                         3.167793      -0.065115
                                                         1.341704       0.233173
                                                         0.545418      -0.041743
                                                         0.222222      -0.119659
                                                         0.079830      -0.031199
                          1       3    3pz               6.400813       0.044197
                                                         3.167793      -0.065115
                                                         1.341704       0.233173
                                                         0.545418      -0.041743
                                                         0.222222      -0.119659
                                                         0.079830      -0.031199

                          1       4    4px               6.400813       0.240176
                                                         3.167793      -0.408028
                                                         1.341704      -0.147214
                                                         0.545418      -0.102288
                                                         0.222222       0.357755
                                                         0.079830      -0.080257
                          1       4    4py               6.400813       0.240176
                                                         3.167793      -0.408028
                                                         1.341704      -0.147214
                                                         0.545418      -0.102288
                                                         0.222222       0.357755
                                                         0.079830      -0.080257
                          1       4    4pz               6.400813       0.240176
                                                         3.167793      -0.408028
                                                         1.341704      -0.147214
                                                         0.545418      -0.102288
                                                         0.222222       0.357755
                                                         0.079830      -0.080257

                          1       5    4dx2              6.400813      12.052935
                                                         3.167793       4.421864
                                                         1.341704       0.893324
                                                         0.545418       0.127232
                                                         0.222222       0.011466
                                                         0.079830       0.000178
                          1       5    4dxy              6.400813      20.876296
                                                         3.167793       7.658893
                                                         1.341704       1.547283
                                                         0.545418       0.220373
                                                         0.222222       0.019859
                                                         0.079830       0.000308
                          1       5    4dxz              6.400813      20.876296
                                                         3.167793       7.658893
                                                         1.341704       1.547283
                                                         0.545418       0.220373
                                                         0.222222       0.019859
                                                         0.079830       0.000308
                          1       5    4dy2              6.400813      12.052935
                                                         3.167793       4.421864
                                                         1.341704       0.893324
                                                         0.545418       0.127232
                                                         0.222222       0.011466
                                                         0.079830       0.000178
                          1       5    4dyz              6.400813      20.876296
                                                         3.167793       7.658893
                                                         1.341704       1.547283
                                                         0.545418       0.220373
                                                         0.222222       0.019859
                                                         0.079830       0.000308
                          1       5    4dz2              6.400813      12.052935
                                                         3.167793       4.421864
                                                         1.341704       0.893324
                                                         0.545418       0.127232
                                                         0.222222       0.011466
                                                         0.079830       0.000178

                          1       6    5dx2              6.400813      -3.077244
                                                         3.167793      -1.397438
                                                         1.341704      -0.501565
                                                         0.545418       0.120936
                                                         0.222222       0.032489
                                                         0.079830       0.013923
                          1       6    5dxy              6.400813      -5.329943
                                                         3.167793      -2.420434
                                                         1.341704      -0.868735
                                                         0.545418       0.209468
                                                         0.222222       0.056272
                                                         0.079830       0.024116
                          1       6    5dxz              6.400813      -5.329943
                                                         3.167793      -2.420434
                                                         1.341704      -0.868735
                                                         0.545418       0.209468
                                                         0.222222       0.056272
                                                         0.079830       0.024116
                          1       6    5dy2              6.400813      -3.077244
                                                         3.167793      -1.397438
                                                         1.341704      -0.501565
                                                         0.545418       0.120936
                                                         0.222222       0.032489
                                                         0.079830       0.013923
                          1       6    5dyz              6.400813      -5.329943
                                                         3.167793      -2.420434
                                                         1.341704      -0.868735
                                                         0.545418       0.209468
                                                         0.222222       0.056272
                                                         0.079830       0.024116
                          1       6    5dz2              6.400813      -3.077244
                                                         3.167793      -1.397438
                                                         1.341704      -0.501565
                                                         0.545418       0.120936
                                                         0.222222       0.032489
                                                         0.079830       0.013923

                          1       7    5fx3              6.400813      -0.041001
                                                         3.167793       0.016340
                                                         1.341704       0.068339
                                                         0.545418       0.147998
                                                         0.222222       0.008656
                                                         0.079830       0.003475
                          1       7    5fx2y             6.400813      -0.091680
                                                         3.167793       0.036538
                                                         1.341704       0.152810
                                                         0.545418       0.330933
                                                         0.222222       0.019354
                                                         0.079830       0.007771
                          1       7    5fx2z             6.400813      -0.091680
                                                         3.167793       0.036538
                                                         1.341704       0.152810
                                                         0.545418       0.330933
                                                         0.222222       0.019354
                                                         0.079830       0.007771
                          1       7    5fxy2             6.400813      -0.091680
                                                         3.167793       0.036538
                                                         1.341704       0.152810
                                                         0.545418       0.330933
                                                         0.222222       0.019354
                                                         0.079830       0.007771
                          1       7    5fxyz             6.400813      -0.158795
                                                         3.167793       0.063286
                                                         1.341704       0.264674
                                                         0.545418       0.573193
                                                         0.222222       0.033523
                                                         0.079830       0.013460
                          1       7    5fxz2             6.400813      -0.091680
                                                         3.167793       0.036538
                                                         1.341704       0.152810
                                                         0.545418       0.330933
                                                         0.222222       0.019354
                                                         0.079830       0.007771
                          1       7    5fy3              6.400813      -0.041001
                                                         3.167793       0.016340
                                                         1.341704       0.068339
                                                         0.545418       0.147998
                                                         0.222222       0.008656
                                                         0.079830       0.003475
                          1       7    5fy2z             6.400813      -0.091680
                                                         3.167793       0.036538
                                                         1.341704       0.152810
                                                         0.545418       0.330933
                                                         0.222222       0.019354
                                                         0.079830       0.007771
                          1       7    5fyz2             6.400813      -0.091680
                                                         3.167793       0.036538
                                                         1.341704       0.152810
                                                         0.545418       0.330933
                                                         0.222222       0.019354
                                                         0.079830       0.007771
                          1       7    5fz3              6.400813      -0.041001
                                                         3.167793       0.016340
                                                         1.341704       0.068339
                                                         0.545418       0.147998
                                                         0.222222       0.008656
                                                         0.079830       0.003475

     Potential information for                                       GTH-PBE-q12

       Description:                       Goedecker-Teter-Hutter pseudopotential
                                           Goedecker et al., PRB 54, 1703 (1996)
                                          Hartwigsen et al., PRB 58, 3641 (1998)
                                                      Krack, TCA 114, 145 (2005)

       Gaussian exponent of the core charge distribution:               1.922338
       Electronic configuration (s p d ...):                           2   0  10

       Parameters of the local part of the GTH pseudopotential:

                          rloc        C1          C2          C3          C4
                        0.510000

       Parameters of the non-local part of the GTH pseudopotential:

                   l      r(l)      h(i,j,l)

                   0    0.400316   11.530041   -8.791898    3.145086
                                   -8.791898   16.465775   -8.120578
                                    3.145086   -8.120578    6.445509
                   1    0.543182    2.597195   -0.594263
                                   -0.594263    0.703141
                   2    0.250959  -14.466958

  2. Atomic kind: C                                     Number of atoms:      36

     Orbital Basis Set                                              DZVP-GTH-PBE

       Number of orbital shell sets:                                           2
       Number of orbital shells:                                               5
       Number of primitive Cartesian functions:                                5
       Number of Cartesian basis functions:                                   14
       Number of spherical basis functions:                                   13
       Norm type:                                                              2

       Normalised Cartesian orbitals:

                        Set   Shell   Orbital            Exponent    Coefficient

                          1       1    2s                4.365761       0.317724
                                                         1.274963      -0.017959
                                                         0.405288      -0.256998
                                                         0.117272      -0.054292

                          1       2    3s                4.365761       0.000000
                                                         1.274963       0.000000
                                                         0.405288       0.000000
                                                         0.117272       0.142825

                          1       3    3px               4.365761      -0.777347
                                                         1.274963      -0.529750
                                                         0.405288      -0.219987
                                                         0.117272      -0.039472
                          1       3    3py               4.365761      -0.777347
                                                         1.274963      -0.529750
                                                         0.405288      -0.219987
                                                         0.117272      -0.039472
                          1       3    3pz               4.365761      -0.777347
                                                         1.274963      -0.529750
                                                         0.405288      -0.219987
                                                         0.117272      -0.039472

                          1       4    4px               4.365761       0.000000
                                                         1.274963       0.000000
                                                         0.405288       0.000000
                                                         0.117272       0.097821
                          1       4    4py               4.365761       0.000000
                                                         1.274963       0.000000
                                                         0.405288       0.000000
                                                         0.117272       0.097821
                          1       4    4pz               4.365761       0.000000
                                                         1.274963       0.000000
                                                         0.405288       0.000000
                                                         0.117272       0.097821

                          2       1    3dx2              0.600000       0.673247
                          2       1    3dxy              0.600000       1.166097
                          2       1    3dxz              0.600000       1.166097
                          2       1    3dy2              0.600000       0.673247
                          2       1    3dyz              0.600000       1.166097
                          2       1    3dz2              0.600000       0.673247

     Potential information for                                        GTH-PBE-q4

       Description:                       Goedecker-Teter-Hutter pseudopotential
                                           Goedecker et al., PRB 54, 1703 (1996)
                                          Hartwigsen et al., PRB 58, 3641 (1998)
                                                      Krack, TCA 114, 145 (2005)

       Gaussian exponent of the core charge distribution:               4.364419
       Electronic configuration (s p d ...):                               2   2

       Parameters of the local part of the GTH pseudopotential:

                          rloc        C1          C2          C3          C4
                        0.338471   -8.803674    1.339211

       Parameters of the non-local part of the GTH pseudopotential:

                   l      r(l)      h(i,j,l)

                   0    0.302576    9.622487
                   1    0.291507

  3. Atomic kind: N                                     Number of atoms:      24

     Orbital Basis Set                                              DZVP-GTH-PBE

       Number of orbital shell sets:                                           2
       Number of orbital shells:                                               5
       Number of primitive Cartesian functions:                                5
       Number of Cartesian basis functions:                                   14
       Number of spherical basis functions:                                   13
       Norm type:                                                              2

       Normalised Cartesian orbitals:

                        Set   Shell   Orbital            Exponent    Coefficient

                          1       1    2s                6.164619       0.420336
                                                         1.803721      -0.037610
                                                         0.565851      -0.331484
                                                         0.160330      -0.066869

                          1       2    3s                6.164619       0.000000
                                                         1.803721       0.000000
                                                         0.565851       0.000000
                                                         0.160330       0.180580

                          1       3    3px               6.164619      -1.298978
                                                         1.803721      -0.867695
                                                         0.565851      -0.335435
                                                         0.160330      -0.055666
                          1       3    3py               6.164619      -1.298978
                                                         1.803721      -0.867695
                                                         0.565851      -0.335435
                                                         0.160330      -0.055666
                          1       3    3pz               6.164619      -1.298978
                                                         1.803721      -0.867695
                                                         0.565851      -0.335435
                                                         0.160330      -0.055666

                          1       4    4px               6.164619       0.000000
                                                         1.803721       0.000000
                                                         0.565851       0.000000
                                                         0.160330       0.144613
                          1       4    4py               6.164619       0.000000
                                                         1.803721       0.000000
                                                         0.565851       0.000000
                                                         0.160330       0.144613
                          1       4    4pz               6.164619       0.000000
                                                         1.803721       0.000000
                                                         0.565851       0.000000
                                                         0.160330       0.144613

                          2       1    3dx2              0.700000       0.881721
                          2       1    3dxy              0.700000       1.527185
                          2       1    3dxz              0.700000       1.527185
                          2       1    3dy2              0.700000       0.881721
                          2       1    3dyz              0.700000       1.527185
                          2       1    3dz2              0.700000       0.881721

     Potential information for                                        GTH-PBE-q5

       Description:                       Goedecker-Teter-Hutter pseudopotential
                                           Goedecker et al., PRB 54, 1703 (1996)
                                          Hartwigsen et al., PRB 58, 3641 (1998)
                                                      Krack, TCA 114, 145 (2005)

       Gaussian exponent of the core charge distribution:               6.208322
       Electronic configuration (s p d ...):                               2   3

       Parameters of the local part of the GTH pseudopotential:

                          rloc        C1          C2          C3          C4
                        0.283791  -12.415226    1.868096

       Parameters of the non-local part of the GTH pseudopotential:

                   l      r(l)      h(i,j,l)

                   0    0.255405   13.630263
                   1    0.245495

  4. Atomic kind: H                                     Number of atoms:      36

     Orbital Basis Set                                              DZVP-GTH-PBE

       Number of orbital shell sets:                                           2
       Number of orbital shells:                                               3
       Number of primitive Cartesian functions:                                5
       Number of Cartesian basis functions:                                    5
       Number of spherical basis functions:                                    5
       Norm type:                                                              2

       Normalised Cartesian orbitals:

                        Set   Shell   Orbital            Exponent    Coefficient

                          1       1    1s                8.448693      -0.102587
                                                         1.858165      -0.150628
                                                         0.507611      -0.174074
                                                         0.167390      -0.102410

                          1       2    2s                8.448693       0.000000
                                                         1.858165       0.000000
                                                         0.507611       0.000000
                                                         0.167390       0.186513

                          2       1    2px               0.700000       0.912668
                          2       1    2py               0.700000       0.912668
                          2       1    2pz               0.700000       0.912668

     Potential information for                                        GTH-PBE-q1

       Description:                       Goedecker-Teter-Hutter pseudopotential
                                           Goedecker et al., PRB 54, 1703 (1996)
                                          Hartwigsen et al., PRB 58, 3641 (1998)
                                                      Krack, TCA 114, 145 (2005)

       Gaussian exponent of the core charge distribution:              12.500000
       Electronic configuration (s p d ...):                                   1

       Parameters of the local part of the GTH pseudopotential:

                          rloc        C1          C2          C3          C4
                        0.200000   -4.178900    0.724463


 MOLECULE KIND INFORMATION


 All atoms are their own molecule, skipping detailed information


 TOTAL NUMBERS AND MAXIMUM NUMBERS

  Total number of            - Atomic kinds:                                   4
                             - Atoms:                                        102
                             - Shell sets:                                   198
                             - Shells:                                       450
                             - Primitive Cartesian functions:                516
                             - Cartesian basis functions:                   1200
                             - Spherical basis functions:                   1110

  Maximum angular momentum of- Orbital basis functions:                        3
                             - Local part of the GTH pseudopotential:          2
                             - Non-local part of the GTH pseudopotential:      4


 MODULE QUICKSTEP:  ATOMIC COORDINATES IN angstrom

  Atom  Kind  Element       X           Y           Z          Z(eff)       Mass

       1     1 Zn  30   -7.372445    5.228904   -3.036860     12.00      65.3800
       2     1 Zn  30    7.324131   -5.177948    2.970973     12.00      65.3800
       3     1 Zn  30   -2.474151   -8.627801    2.962542     12.00      65.3800
       4     1 Zn  30    7.324817    0.017752   -6.045563     12.00      65.3800
       5     1 Zn  30    7.324235   -5.177894   -3.045839     12.00      65.3800
       6     1 Zn  30   -2.474009    6.946778   -6.029166     12.00      65.3800
       7     2 C    6   -4.496631    6.094483   -2.440737      4.00      12.0107
       8     2 C    6   -7.762207   -2.199300    2.418868      4.00      12.0107
       9     2 C    6    5.661776    3.774483   -5.141653      4.00      12.0107
      10     2 C    6    6.435678   -7.457120    4.801224      4.00      12.0107
      11     2 C    6   -3.359907   -5.898841    4.011730      4.00      12.0107
      12     2 C    6    6.946688   -0.991564   -3.187493      4.00      12.0107
      13     2 C    6    5.304916    8.767465   -4.082061      4.00      12.0107
      14     2 C    6    0.404956    6.003087   -5.586079      4.00      12.0107
      15     2 C    6    5.657470   -6.269584   -0.734060      4.00      12.0107
      16     2 C    6    1.539755   -7.367904    3.067234      4.00      12.0107
      17     2 C    6   -7.750645    3.258512    0.659473      4.00      12.0107
      18     2 C    6   -9.039621    2.566104    5.760700      4.00      12.0107
      19     2 C    6    6.946743   -2.198153   -2.490980      4.00      12.0107
      20     2 C    6    0.405387   -7.773876    2.367694      4.00      12.0107
      21     2 C    6    1.539312    6.405773   -4.884625      4.00      12.0107
      22     2 C    6   -9.039705    3.772948    5.064236      4.00      12.0107
      23     2 C    6   -4.494215   -5.089953    4.009739      4.00      12.0107
      24     2 C    6   -3.362251    6.500461   -3.140248      4.00      12.0107
      25     2 C    6    6.439272    7.958641   -4.083920      4.00      12.0107
      26     2 C    6   -7.750602    3.258387   -0.733720      4.00      12.0107
      27     2 C    6    5.661778    2.567779   -5.838350      4.00      12.0107
      28     2 C    6   -7.762176   -0.992750    3.115465      4.00      12.0107
      29     2 C    6    5.657482   -6.269223    0.659329      4.00      12.0107
      30     2 C    6    5.301297   -7.860006    5.502517      4.00      12.0107
      31     2 C    6   -4.901288    5.922513   -4.582917      4.00      12.0107
      32     2 C    6   -7.519147   -2.625337    4.549993      4.00      12.0107
      33     2 C    6    7.446659    2.643486   -4.576098      4.00      12.0107
      34     2 C    6    4.896932   -5.918340    4.581278      4.00      12.0107
      35     2 C    6   -4.902703   -6.864468    2.798771      4.00      12.0107
      36     2 C    6    7.175640   -2.624840   -4.623533      4.00      12.0107
      37     2 C    6    4.894942    6.990871   -2.874607      4.00      12.0107
      38     2 C    6   -0.003429    7.939081   -4.654759      4.00      12.0107
      39     2 C    6    7.444721   -5.218127   -0.037641      4.00      12.0107
      40     2 C    6   -0.004243   -7.932271    4.509989      4.00      12.0107
      41     2 C    6   -7.521792    5.318696   -0.037308      4.00      12.0107
      42     2 C    6   -7.252649    2.643948    4.501548      4.00      12.0107
      43     3 N    7   -5.467323    5.728624   -3.364538      5.00      14.0067
      44     3 N    7   -7.607687   -3.229694    3.337609      5.00      14.0067
      45     3 N    7    6.798163    3.813027   -4.343131      5.00      14.0067
      46     3 N    7    6.169473   -6.223294    4.220822      5.00      14.0067
      47     3 N    7   -3.628747   -7.022159    3.239762      5.00      14.0067
      48     3 N    7    7.092166   -1.272422   -4.540121      5.00      14.0067
      49     3 N    7    4.330830    8.145635   -3.311346      5.00      14.0067
      50     3 N    7   -0.568119    6.982819   -5.435232      5.00      14.0067
      51     3 N    7    6.795371   -5.599988   -1.166861      5.00      14.0067
      52     3 N    7    1.270183   -7.472825    4.426055      5.00      14.0067
      53     3 N    7   -7.605229    4.570436    1.092338      5.00      14.0067
      54     3 N    7   -7.901845    1.856575    5.396642      5.00      14.0067
      55     3 N    7    7.092248   -3.228993   -3.410686      5.00      14.0067
      56     3 N    7   -0.568485   -8.131034    3.291560      5.00      14.0067
      57     3 N    7    1.270539    7.635982   -4.297769      5.00      14.0067
      58     3 N    7   -7.901975    3.812837    4.267697      5.00      14.0067
      59     3 N    7   -5.467324   -5.710395    3.236684      5.00      14.0067
      60     3 N    7   -3.628642    6.386858   -4.498993      5.00      14.0067
      61     3 N    7    6.169481    6.834003   -3.314197      5.00      14.0067
      62     3 N    7   -7.605153    4.570223   -1.166821      5.00      14.0067
      63     3 N    7    6.798167    1.856967   -5.472472      5.00      14.0067
      64     3 N    7   -7.607640   -1.273200    4.467182      5.00      14.0067
      65     3 N    7    6.795382   -5.599395    1.091782      5.00      14.0067
      66     3 N    7    4.330791   -6.876775    5.358018      5.00      14.0067
      67     4 H    1   -4.682203    6.027287   -1.361997      1.00       1.0079
      68     4 H    1    6.826408   -2.404328    1.347068      1.00       1.0079
      69     4 H    1    4.953248    4.611411   -5.161628      1.00       1.0079
      70     4 H    1   -7.288339   -7.947144    4.677198      1.00       1.0079
      71     4 H    1   -2.384945   -5.758990    4.494155      1.00       1.0079
      72     4 H    1    6.843722    0.039459   -2.828333      1.00       1.0079
      73     4 H    1   10.020610   -4.118366   -4.557727      1.00       1.0079
      74     4 H    1   -4.678179   -1.823640    5.812784      1.00       1.0079
      75     4 H    1    0.048892    7.152719   -1.448733      1.00       1.0079
      76     4 H    1    2.515255   -7.021454    2.704995      1.00       1.0079
      77     4 H    1   -7.853421    2.432065    1.372934      1.00       1.0079
      78     4 H    1   -4.849864    9.092434   -5.506122      1.00       1.0079
      79     4 H    1    6.843979   -2.402794   -1.418522      1.00       1.0079
      80     4 H    1   -4.677287    6.009822    1.288990      1.00       1.0079
      81     4 H    1    2.514265    5.918022   -4.764585      1.00       1.0079
      82     4 H    1   -4.849999   -9.247617    5.083270      1.00       1.0079
      83     4 H    1   -4.678181   -4.119897    4.486998      1.00       1.0079
      84     4 H    1   -2.388813    6.852505   -2.777850      1.00       1.0079
      85     4 H    1   -7.282430    8.099320   -4.564751      1.00       1.0079
      86     4 H    1    6.843848    2.431814   -1.447021      1.00       1.0079
      87     4 H    1    0.054141   -4.761776    5.427181      1.00       1.0079
      88     4 H    1   -7.870863    0.037969    2.757113      1.00       1.0079
      89     4 H    1    4.947997   -6.703222    1.374265      1.00       1.0079
      90     4 H    1   10.014717   -1.832481   -5.900651      1.00       1.0079
      91     4 H    1   -5.414210   -7.582774    2.144430      1.00       1.0079
      92     4 H    1    4.382627    6.271453   -2.222124      1.00       1.0079
      93     4 H    1    8.401243   -4.678861   -0.037782      1.00       1.0079
      94     4 H    1   -7.419878    6.412048   -0.037399      1.00       1.0079
      95     4 H    1    7.277608   -3.171452   -5.570435      1.00       1.0079
      96     4 H    1   -5.410845    5.709740   -5.532045      1.00       1.0079
      97     4 H    1   -0.516384   -8.138129    5.459249      1.00       1.0079
      98     4 H    1    4.387528   -4.989753    4.291452      1.00       1.0079
      99     4 H    1   -6.296244    2.374344    4.034274      1.00       1.0079
     100     4 H    1   -7.409819   -3.171654    5.496242      1.00       1.0079
     101     4 H    1   -0.514895    8.864922   -4.359823      1.00       1.0079
     102     4 H    1    8.401981    2.372789   -4.107239      1.00       1.0079




 SCF PARAMETERS         Density guess:                                   RESTART
                        --------------------------------------------------------
                        max_scf:                                           15000
                        max_scf_history:                                       0
                        max_diis:                                              4
                        --------------------------------------------------------
                        eps_scf:                                        1.00E-10
                        eps_scf_history:                                0.00E+00
                        eps_diis:                                       1.00E-01
                        eps_eigval:                                     1.00E-05
                        --------------------------------------------------------
                        level_shift [a.u.]:                                 0.00
                        --------------------------------------------------------
                        No outer SCF

 PW_GRID| Information for grid number                                          1
 PW_GRID| Cutoff [a.u.]                                                   1250.0
 PW_GRID| spherical cutoff:                                                   NO
 PW_GRID|   Bounds   1           -225     224                Points:         450
 PW_GRID|   Bounds   2           -225     224                Points:         450
 PW_GRID|   Bounds   3           -225     224                Points:         450
 PW_GRID| Volume element (a.u.^3)  0.1810E-03     Volume (a.u.^3)     16492.6453
 PW_GRID| Grid span                                                    FULLSPACE

 PW_GRID| Information for grid number                                          2
 PW_GRID| Cutoff [a.u.]                                                    416.7
 PW_GRID| spherical cutoff:                                                   NO
 PW_GRID|   Bounds   1           -128     127                Points:         256
 PW_GRID|   Bounds   2           -128     127                Points:         256
 PW_GRID|   Bounds   3           -128     127                Points:         256
 PW_GRID| Volume element (a.u.^3)  0.9830E-03     Volume (a.u.^3)     16492.6453
 PW_GRID| Grid span                                                    FULLSPACE

 PW_GRID| Information for grid number                                          3
 PW_GRID| Cutoff [a.u.]                                                    138.9
 PW_GRID| spherical cutoff:                                                   NO
 PW_GRID|   Bounds   1            -75      74                Points:         150
 PW_GRID|   Bounds   2            -75      74                Points:         150
 PW_GRID|   Bounds   3            -75      74                Points:         150
 PW_GRID| Volume element (a.u.^3)  0.4887E-02     Volume (a.u.^3)     16492.6453
 PW_GRID| Grid span                                                    FULLSPACE

 PW_GRID| Information for grid number                                          4
 PW_GRID| Cutoff [a.u.]                                                     46.3
 PW_GRID| spherical cutoff:                                                   NO
 PW_GRID|   Bounds   1            -45      44                Points:          90
 PW_GRID|   Bounds   2            -45      44                Points:          90
 PW_GRID|   Bounds   3            -45      44                Points:          90
 PW_GRID| Volume element (a.u.^3)  0.2262E-01     Volume (a.u.^3)     16492.6453
 PW_GRID| Grid span                                                    FULLSPACE

 POISSON| Solver                                                        PERIODIC
 POISSON| Periodicity                                                        XYZ

 RS_GRID| Information for grid number                                          1
 RS_GRID|   Bounds   1           -225     224                Points:         450
 RS_GRID|   Bounds   2           -225     224                Points:         450
 RS_GRID|   Bounds   3           -225     224                Points:         450

 RS_GRID| Information for grid number                                          2
 RS_GRID|   Bounds   1           -128     127                Points:         256
 RS_GRID|   Bounds   2           -128     127                Points:         256
 RS_GRID|   Bounds   3           -128     127                Points:         256

 RS_GRID| Information for grid number                                          3
 RS_GRID|   Bounds   1            -75      74                Points:         150
 RS_GRID|   Bounds   2            -75      74                Points:         150
 RS_GRID|   Bounds   3            -75      74                Points:         150

 RS_GRID| Information for grid number                                          4
 RS_GRID|   Bounds   1            -45      44                Points:          90
 RS_GRID|   Bounds   2            -45      44                Points:          90
 RS_GRID|   Bounds   3            -45      44                Points:          90

 DISTRIBUTION OF THE PARTICLES (ROWS)
              Process row      Number of particles         Number of matrix rows
                        0                      102                            -1
                      Sum                      102                            -1

 DISTRIBUTION OF THE PARTICLES (COLUMNS)
              Process col      Number of particles      Number of matrix columns
                        0                      102                            -1
                      Sum                      102                            -1

 DISTRIBUTION OF THE NEIGHBOR LISTS
              Total number of particle pairs:                               8028
              Total number of matrix elements:                           1183692
              Average number of particle pairs:                             8028
              Maximum number of particle pairs:                             8028
              Average number of matrix element:                          1183692
              Maximum number of matrix elements:                         1183692


 DISTRIBUTION OF THE OVERLAP MATRIX
              Number  of non-zero blocks:                                   5067
              Percentage non-zero blocks:                                  96.46
              Average number of blocks per CPU:                             5067
              Maximum number of blocks per CPU:                             5067
              Average number of matrix elements per CPU:                  616165
              Maximum number of matrix elements per CPU:                  616165

 Number of electrons:                                                        372
 Number of occupied orbitals:                                                186
 Number of molecular orbitals:                                               186

 Number of orbital functions:                                               1110
 Number of independent orbital functions:                                   1110

 Extrapolation method: initial_guess


 SCF WAVEFUNCTION OPTIMIZATION

  ----------------------------------- OT ---------------------------------------
  Minimizer      : DIIS                : direct inversion
                                         in the iterative subspace
                                         using   7 DIIS vectors
                                         safer DIIS on
  Preconditioner : FULL_SINGLE_INVERSE : inversion of 
                                         H + eS - 2*(Sc)(c^T*H*c+const)(Sc)^T
  Precond_solver : DEFAULT
  stepsize       :    0.08000000                  energy_gap     :    0.08000000
  eps_taylor     :   0.10000E-15                  max_taylor     :             4
  ----------------------------------- OT ---------------------------------------

  Step     Update method      Time    Convergence         Total energy    Change
  ------------------------------------------------------------------------------

  Trace(PS):                                  372.0000000000
  Electronic density on regular grids:       -371.9999997395        0.0000002605
  Core density on regular grids:              371.9999999745       -0.0000000255
  Total charge density on r-space grids:        0.0000002350
  Total charge density g-space grids:           0.0000002350

     1 OT DIIS     0.80E-01  178.8     5.8223E-11      -828.1126876901 -8.28E+02

  *** SCF run converged in     1 steps ***


  Electronic density on regular grids:       -371.9999997395        0.0000002605
  Core density on regular grids:              371.9999999745       -0.0000000255
  Total charge density on r-space grids:        0.0000002350
  Total charge density g-space grids:           0.0000002350

  Overlap energy of the core charge distribution:               0.00001378893473
  Self energy of the core charge distribution:              -1605.15396492424657
  Core Hamiltonian energy:                                    495.61422341600905
  Hartree energy:                                             471.84873298273754
  Exchange-correlation energy:                               -190.29125431901639
  Dispersion energy:                                           -0.13043863447102

  Total energy:                                              -828.11268769005255

 The electron density is written in cube file format to the file:

 ZIF8-ELECTRON_DENSITY-1_0.cube

 !-----------------------------------------------------------------------------!
                     Mulliken Population Analysis

 #  Atom  Element  Kind  Atomic population                           Net charge
       1     Zn       1         11.671584                              0.328416
       2     Zn       1         11.671652                              0.328348
       3     Zn       1         11.671670                              0.328330
       4     Zn       1         11.671573                              0.328427
       5     Zn       1         11.671681                              0.328319
       6     Zn       1         11.671647                              0.328353
       7     C        2          4.234875                             -0.234875
       8     C        2          4.240718                             -0.240718
       9     C        2          4.243933                             -0.243933
      10     C        2          4.244334                             -0.244334
      11     C        2          4.244476                             -0.244476
      12     C        2          4.240505                             -0.240505
      13     C        2          4.235066                             -0.235066
      14     C        2          4.234923                             -0.234923
      15     C        2          4.243790                             -0.243790
      16     C        2          4.244559                             -0.244559
      17     C        2          4.240694                             -0.240694
      18     C        2          4.244068                             -0.244068
      19     C        2          4.240704                             -0.240704
      20     C        2          4.235060                             -0.235060
      21     C        2          4.244461                             -0.244461
      22     C        2          4.243798                             -0.243798
      23     C        2          4.234915                             -0.234915
      24     C        2          4.244341                             -0.244341
      25     C        2          4.244563                             -0.244563
      26     C        2          4.240508                             -0.240508
      27     C        2          4.243949                             -0.243949
      28     C        2          4.240727                             -0.240727
      29     C        2          4.244076                             -0.244076
      30     C        2          4.234852                             -0.234852
      31     C        2          4.363111                             -0.363111
      32     C        2          4.351630                             -0.351630
      33     C        2          4.355373                             -0.355373
      34     C        2          4.363129                             -0.363129
      35     C        2          4.362682                             -0.362682
      36     C        2          4.351824                             -0.351824
      37     C        2          4.362835                             -0.362835
      38     C        2          4.362680                             -0.362680
      39     C        2          4.355645                             -0.355645
      40     C        2          4.362862                             -0.362862
      41     C        2          4.351827                             -0.351827
      42     C        2          4.355626                             -0.355626
      43     N        3          5.046469                             -0.046469
      44     N        3          5.050704                             -0.050704
      45     N        3          5.052806                             -0.052806
      46     N        3          5.046259                             -0.046259
      47     N        3          5.046475                             -0.046475
      48     N        3          5.050586                             -0.050586
      49     N        3          5.046667                             -0.046667
      50     N        3          5.046620                             -0.046620
      51     N        3          5.052704                             -0.052704
      52     N        3          5.046546                             -0.046546
      53     N        3          5.050589                             -0.050589
      54     N        3          5.052741                             -0.052741
      55     N        3          5.050588                             -0.050588
      56     N        3          5.046660                             -0.046660
      57     N        3          5.046476                             -0.046476
      58     N        3          5.052709                             -0.052709
      59     N        3          5.046624                             -0.046624
      60     N        3          5.046273                             -0.046273
      61     N        3          5.046560                             -0.046560
      62     N        3          5.050585                             -0.050585
      63     N        3          5.052807                             -0.052807
      64     N        3          5.050708                             -0.050708
      65     N        3          5.052738                             -0.052738
      66     N        3          5.046464                             -0.046464
      67     H        4          0.730759                              0.269241
      68     H        4          0.728991                              0.271009
      69     H        4          0.727335                              0.272665
      70     H        4          0.730831                              0.269169
      71     H        4          0.730688                              0.269312
      72     H        4          0.729094                              0.270906
      73     H        4          0.730593                              0.269407
      74     H        4          0.730673                              0.269327
      75     H        4          0.727397                              0.272603
      76     H        4          0.730654                              0.269346
      77     H        4          0.729050                              0.270950
      78     H        4          0.727323                              0.272677
      79     H        4          0.729043                              0.270957
      80     H        4          0.730600                              0.269400
      81     H        4          0.730694                              0.269306
      82     H        4          0.727393                              0.272607
      83     H        4          0.730675                              0.269325
      84     H        4          0.730825                              0.269175
      85     H        4          0.730647                              0.269353
      86     H        4          0.729095                              0.270905
      87     H        4          0.727329                              0.272671
      88     H        4          0.728993                              0.271007
      89     H        4          0.727317                              0.272683
      90     H        4          0.730772                              0.269228
      91     H        4          0.767685                              0.232315
      92     H        4          0.767724                              0.232276
      93     H        4          0.766398                              0.233602
      94     H        4          0.765453                              0.234547
      95     H        4          0.765455                              0.234545
      96     H        4          0.767776                              0.232224
      97     H        4          0.767731                              0.232269
      98     H        4          0.767777                              0.232223
      99     H        4          0.766399                              0.233601
     100     H        4          0.765492                              0.234508
     101     H        4          0.767685                              0.232315
     102     H        4          0.766370                              0.233630
 # Total charge                            372.000000                 -0.000000

 !-----------------------------------------------------------------------------!

 !-----------------------------------------------------------------------------!
                           Hirshfeld Charges

  #Atom  Element  Kind  Ref Charge     Population                    Net charge
      1       Zn     1      12.000         12.632                        -0.632
      2       Zn     1      12.000         12.632                        -0.632
      3       Zn     1      12.000         12.632                        -0.632
      4       Zn     1      12.000         12.632                        -0.632
      5       Zn     1      12.000         12.632                        -0.632
      6       Zn     1      12.000         12.632                        -0.632
      7       C      2       4.000          3.952                         0.048
      8       C      2       4.000          3.952                         0.048
      9       C      2       4.000          3.952                         0.048
     10       C      2       4.000          3.952                         0.048
     11       C      2       4.000          3.952                         0.048
     12       C      2       4.000          3.952                         0.048
     13       C      2       4.000          3.952                         0.048
     14       C      2       4.000          3.952                         0.048
     15       C      2       4.000          3.952                         0.048
     16       C      2       4.000          3.952                         0.048
     17       C      2       4.000          3.952                         0.048
     18       C      2       4.000          3.952                         0.048
     19       C      2       4.000          3.952                         0.048
     20       C      2       4.000          3.952                         0.048
     21       C      2       4.000          3.952                         0.048
     22       C      2       4.000          3.952                         0.048
     23       C      2       4.000          3.952                         0.048
     24       C      2       4.000          3.952                         0.048
     25       C      2       4.000          3.952                         0.048
     26       C      2       4.000          3.952                         0.048
     27       C      2       4.000          3.952                         0.048
     28       C      2       4.000          3.952                         0.048
     29       C      2       4.000          3.952                         0.048
     30       C      2       4.000          3.952                         0.048
     31       C      2       4.000          3.815                         0.185
     32       C      2       4.000          3.815                         0.185
     33       C      2       4.000          3.816                         0.184
     34       C      2       4.000          3.815                         0.185
     35       C      2       4.000          3.815                         0.185
     36       C      2       4.000          3.815                         0.185
     37       C      2       4.000          3.815                         0.185
     38       C      2       4.000          3.815                         0.185
     39       C      2       4.000          3.816                         0.184
     40       C      2       4.000          3.815                         0.185
     41       C      2       4.000          3.815                         0.185
     42       C      2       4.000          3.816                         0.184
     43       N      3       5.000          5.075                        -0.075
     44       N      3       5.000          5.074                        -0.074
     45       N      3       5.000          5.075                        -0.075
     46       N      3       5.000          5.075                        -0.075
     47       N      3       5.000          5.075                        -0.075
     48       N      3       5.000          5.074                        -0.074
     49       N      3       5.000          5.075                        -0.075
     50       N      3       5.000          5.075                        -0.075
     51       N      3       5.000          5.075                        -0.075
     52       N      3       5.000          5.075                        -0.075
     53       N      3       5.000          5.074                        -0.074
     54       N      3       5.000          5.075                        -0.075
     55       N      3       5.000          5.074                        -0.074
     56       N      3       5.000          5.075                        -0.075
     57       N      3       5.000          5.075                        -0.075
     58       N      3       5.000          5.075                        -0.075
     59       N      3       5.000          5.075                        -0.075
     60       N      3       5.000          5.075                        -0.075
     61       N      3       5.000          5.075                        -0.075
     62       N      3       5.000          5.074                        -0.074
     63       N      3       5.000          5.075                        -0.075
     64       N      3       5.000          5.074                        -0.074
     65       N      3       5.000          5.075                        -0.075
     66       N      3       5.000          5.075                        -0.075
     67       H      4       1.000          0.947                         0.053
     68       H      4       1.000          0.946                         0.054
     69       H      4       1.000          0.946                         0.054
     70       H      4       1.000          0.947                         0.053
     71       H      4       1.000          0.947                         0.053
     72       H      4       1.000          0.946                         0.054
     73       H      4       1.000          0.947                         0.053
     74       H      4       1.000          0.947                         0.053
     75       H      4       1.000          0.946                         0.054
     76       H      4       1.000          0.947                         0.053
     77       H      4       1.000          0.946                         0.054
     78       H      4       1.000          0.946                         0.054
     79       H      4       1.000          0.946                         0.054
     80       H      4       1.000          0.947                         0.053
     81       H      4       1.000          0.947                         0.053
     82       H      4       1.000          0.946                         0.054
     83       H      4       1.000          0.947                         0.053
     84       H      4       1.000          0.947                         0.053
     85       H      4       1.000          0.947                         0.053
     86       H      4       1.000          0.946                         0.054
     87       H      4       1.000          0.946                         0.054
     88       H      4       1.000          0.946                         0.054
     89       H      4       1.000          0.946                         0.054
     90       H      4       1.000          0.947                         0.053
     91       H      4       1.000          0.924                         0.076
     92       H      4       1.000          0.924                         0.076
     93       H      4       1.000          0.921                         0.079
     94       H      4       1.000          0.921                         0.079
     95       H      4       1.000          0.921                         0.079
     96       H      4       1.000          0.924                         0.076
     97       H      4       1.000          0.924                         0.076
     98       H      4       1.000          0.924                         0.076
     99       H      4       1.000          0.921                         0.079
    100       H      4       1.000          0.921                         0.079
    101       H      4       1.000          0.924                         0.076
    102       H      4       1.000          0.921                         0.079

  Total Charge                                                            0.000
 !-----------------------------------------------------------------------------!

 STARTING RESP FIT

  Fit the variance of the potential (REPEAT method).
  Number of explicit constraints:                                             97
  Number of explicit restraints:                                               0
  Constrain total charge                                                       T
  Restrain heavy atoms                                                         F
  Stride:                                                            2    2    2
  ------------------------------------------------------------------------------
  Using sphere sampling
  Element                                    RMIN [angstrom]     RMAX [angstrom]
  Zn                                                 1.38200           138.20000
  C                                                  1.92600           192.60000
  N                                                  1.83000           183.00000
  H                                                  1.44300           144.30000
  ------------------------------------------------------------------------------
  Width of Gaussian charge distribution [angstrom^-2]:                  11.24900
  Number of fitting points found:                                        6690333

  PRINTED RESP CHARGES TO FILE

  Root-mean-square (RMS) error of RESP fit:                          5.08755E-07
  Relative root-mean-square (RRMS) error of RESP fit:                2.86188E-02


 ENERGY| Total FORCE_EVAL ( QS ) energy (a.u.):             -828.112687690052553


 -------------------------------------------------------------------------------
 -                                                                             -
 -                                DBCSR STATISTICS                             -
 -                                                                             -
 -------------------------------------------------------------------------------
 COUNTER                                    TOTAL       BLAS       SMM       ACC
 flops   25 x   26 x   26                  811200     100.0%      0.0%      0.0%
 flops    5 x   26 x   26                  973440     100.0%      0.0%      0.0%
 flops   25 x   32 x   26                 1248000     100.0%      0.0%      0.0%
 flops   25 x   26 x   32                 1248000     100.0%      0.0%      0.0%
 flops    5 x   32 x   26                 1497600     100.0%      0.0%      0.0%
 flops    5 x   26 x   32                 1497600     100.0%      0.0%      0.0%
 flops   26 x   26 x 1110                 1500720     100.0%      0.0%      0.0%
 flops   32 x   26 x 1110                 3694080     100.0%      0.0%      0.0%
 flops   13 x   26 x   26                 4218240     100.0%      0.0%      0.0%
 flops   26 x   32 x 1110                 5541120     100.0%      0.0%      0.0%
 flops   13 x   32 x   26                 6489600     100.0%      0.0%      0.0%
 flops   13 x   26 x   32                 6489600     100.0%      0.0%      0.0%
 flops   25 x   26 x   25                 7020000     100.0%      0.0%      0.0%
 flops    5 x   26 x    5                 8236800     100.0%      0.0%      0.0%
 flops   25 x   26 x    5                 8424000     100.0%      0.0%      0.0%
 flops    5 x   26 x   25                 8424000     100.0%      0.0%      0.0%
 flops   25 x   32 x   32                12288000     100.0%      0.0%      0.0%
 flops  186 x  186 x  186                12869712     100.0%      0.0%      0.0%
 flops   25 x   25 x  186                14647500     100.0%      0.0%      0.0%
 flops    5 x   32 x   32                14745600     100.0%      0.0%      0.0%
 flops   25 x    5 x  186                15066000     100.0%      0.0%      0.0%
 flops    5 x   25 x  186                15066000     100.0%      0.0%      0.0%
 flops    5 x    5 x  186                16349400     100.0%      0.0%      0.0%
 flops   32 x   32 x 1110                34099200     100.0%      0.0%      0.0%
 flops   25 x   26 x   13                36504000     100.0%      0.0%      0.0%
 flops   13 x   26 x   25                36504000     100.0%      0.0%      0.0%
 flops    5 x   26 x   13                42466320     100.0%      0.0%      0.0%
 flops   13 x   26 x    5                42466320     100.0%      0.0%      0.0%
 flops   25 x   32 x   25                43200000     100.0%      0.0%      0.0%
 flops    5 x   32 x    5                50688000     100.0%      0.0%      0.0%
 flops    5 x   32 x   25                51840000     100.0%      0.0%      0.0%
 flops   25 x   32 x    5                51840000     100.0%      0.0%      0.0%
 flops   13 x   32 x   32                63897600     100.0%      0.0%      0.0%
 flops   25 x   13 x  186                65286000     100.0%      0.0%      0.0%
 flops   13 x   25 x  186                65286000     100.0%      0.0%      0.0%
 flops    5 x   13 x  186                76553880     100.0%      0.0%      0.0%
 flops 1110 x  186 x  186                76803120     100.0%      0.0%      0.0%
 flops   13 x    5 x  186                76940760     100.0%      0.0%      0.0%
 flops   13 x   26 x   13               189820800     100.0%      0.0%      0.0%
 flops   13 x   32 x   25               224640000     100.0%      0.0%      0.0%
 flops   25 x   32 x   13               224640000     100.0%      0.0%      0.0%
 flops  186 x  186 x 1110               230409360     100.0%      0.0%      0.0%
 flops    5 x   32 x   13               261331200     100.0%      0.0%      0.0%
 flops   13 x   32 x    5               261331200     100.0%      0.0%      0.0%
 flops   13 x   13 x  186               345145320     100.0%      0.0%      0.0%
 flops 1110 x  186 x 1110               916682400     100.0%      0.0%      0.0%
 flops   13 x   32 x   13              1168128000     100.0%      0.0%      0.0%
 flops total                         4.804850E+09     100.0%      0.0%      0.0%
 flops max/rank                      4.804850E+09     100.0%      0.0%      0.0%
 matmuls inhomo. stacks                         0       0.0%      0.0%      0.0%
 matmuls total                             382075     100.0%      0.0%      0.0%
 number of processed stacks                   522     100.0%      0.0%      0.0%
 average stack size                                   731.9       0.0       0.0
 marketing flops                     5.822653E+09
 -------------------------------------------------------------------------------
 # multiplications                             22
 max memory usage/rank              22.619120E+09
 # max total images/rank                        1
 # MPI messages exchanged                       0
 # MPI messages filtered                        0
 MPI messages size (elements):
  total size                         0.000000E+00
  min size                           0.000000E+00
  max size                           0.000000E+00
  average size                       0.000000E+00
 MPI breakdown and total messages size (bytes):
             size <=      128                   0                        0
       128 < size <=     8192                   0                        0
      8192 < size <=    32768                   0                        0
     32768 < size <=   131072                   0                        0
    131072 < size <=  4194304                   0                        0
   4194304 < size <= 16777216                   0                        0
  16777216 < size                               0                        0
 -------------------------------------------------------------------------------

 MEMORY| Estimated peak process memory [MiB]                               26132

 -------------------------------------------------------------------------------
 ----                             MULTIGRID INFO                            ----
 -------------------------------------------------------------------------------
 count for grid        1:           5064          cutoff [a.u.]         1250.00
 count for grid        2:          17484          cutoff [a.u.]          416.67
 count for grid        3:          22088          cutoff [a.u.]          138.89
 count for grid        4:          31991          cutoff [a.u.]           46.30
 total gridlevel count  :          76627

 -------------------------------------------------------------------------------
 -                                                                             -
 -                           R E F E R E N C E S                               -
 -                                                                             -
 -------------------------------------------------------------------------------
 
 CP2K version 4.1, the CP2K developers group (2016).
 CP2K is freely available from https://www.cp2k.org/ .

 Schuett, Ole; Messmer, Peter; Hutter, Juerg; VandeVondele, Joost. 
 Electronic Structure Calculations on Graphics Processing Units, John Wiley & Sons, Ltd, 173-190 (2016). 
 GPU-Accelerated Sparse Matrix-Matrix Multiplication for Linear Scaling Density Functional Theory.
 http://dx.doi.org/10.1002/9781118670712.ch8


 Golze, D; Hutter, J; Iannuzzi, M. 
 Physical Chemistry Chemical Physics, 17 (22), 14307-14316 (2015). 
 Wetting of water on hexagonal boron nitride@Rh(111): a QM/MM model
 based on atomic charges derived for nano-structured substrates.
 http://dx.doi.org/10.1039/C4CP04638B


 Borstnik, U; VandeVondele, J; Weber, V; Hutter, J. 
 PARALLEL COMPUTING, 40 (5-6), 47-58 (2014). 
 Sparse matrix multiplication: The distributed block-compressed sparse
 row library.
 http://dx.doi.org/10.1016/j.parco.2014.03.012


 Hutter, J; Iannuzzi, M; Schiffmann, F; VandeVondele, J. 
 WILEY INTERDISCIPLINARY REVIEWS-COMPUTATIONAL MOLECULAR SCIENCE, 4 (1), 15-25 (2014). 
 CP2K: atomistic simulations of condensed matter systems.
 http://dx.doi.org/10.1002/wcms.1159


 Grimme, S; Ehrlich, S; Goerigk, L. 
 JOURNAL OF COMPUTATIONAL CHEMISTRY, 32, 1456 (2011). 
 Effect of the damping function in dispersion corrected density functional theory.
 http://dx.doi.org/10.1002/jcc.21759


 Grimme, S; Antony, J; Ehrlich, S; Krieg, H. 
 JOURNAL OF CHEMICAL PHYSICS, 132 (15), 154104 (2010). 
 A consistent and accurate ab initio parametrization of density
 functional dispersion correction (DFT-D) for the 94 elements H-Pu.
 http://dx.doi.org/10.1063/1.3382344


 Campana, C; Mussard, B; Woo, T K. 
 JOURNAL OF CHEMICAL THEORY AND COMPUTATION, 5 (10), 2866 (2009). 
 Electrostatic Potential Derived Atomic Charges for
 Periodic Systems Using a Modified Error Functional.
 http://dx.doi.org/10.1021/ct9003405


 VandeVondele, J; Hutter, J. 
 JOURNAL OF CHEMICAL PHYSICS, 127 (11), 114105 (2007). 
 Gaussian basis sets for accurate calculations on molecular systems in
 gas and condensed phases.
 http://dx.doi.org/10.1063/1.2770708


 Krack, M. 
 THEORETICAL CHEMISTRY ACCOUNTS, 114 (1-3), 145-152 (2005). 
 Pseudopotentials for H to Kr optimized for gradient-corrected
 exchange-correlation functionals.
 http://dx.doi.org/10.1007/s00214-005-0655-y


 VandeVondele, J; Krack, M; Mohamed, F; Parrinello, M; Chassaing, T;
 Hutter, J. COMPUTER PHYSICS COMMUNICATIONS, 167 (2), 103-128 (2005). 
 QUICKSTEP: Fast and accurate density functional calculations using a
 mixed Gaussian and plane waves approach.
 http://dx.doi.org/10.1016/j.cpc.2004.12.014


 Frigo, M; Johnson, SG. 
 PROCEEDINGS OF THE IEEE, 93 (2), 216-231 (2005). 
 The design and implementation of FFTW3.
 http://dx.doi.org/10.1109/JPROC.2004.840301


 VandeVondele, J; Hutter, J. 
 JOURNAL OF CHEMICAL PHYSICS, 118 (10), 4365-4369 (2003). 
 An efficient orbital transformation method for electronic structure
 calculations.
 http://dx.doi.org/10.1063/1.1543154


 Hartwigsen, C; Goedecker, S; Hutter, J. 
 PHYSICAL REVIEW B, 58 (7), 3641-3662 (1998). 
 Relativistic separable dual-space Gaussian pseudopotentials from H to Rn.
 http://dx.doi.org/10.1103/PhysRevB.58.3641


 Lippert, G; Hutter, J; Parrinello, M. 
 MOLECULAR PHYSICS, 92 (3), 477-487 (1997). 
 A hybrid Gaussian and plane wave density functional scheme.
 http://dx.doi.org/10.1080/002689797170220


 Perdew, JP; Burke, K; Ernzerhof, M. 
 PHYSICAL REVIEW LETTERS, 77 (18), 3865-3868 (1996). 
 Generalized gradient approximation made simple.
 http://dx.doi.org/10.1103/PhysRevLett.77.3865


 Goedecker, S; Teter, M; Hutter, J. 
 PHYSICAL REVIEW B, 54 (3), 1703-1710 (1996). 
 Separable dual-space Gaussian pseudopotentials.
 http://dx.doi.org/10.1103/PhysRevB.54.1703


 Rappe, AK; Casewit, CJ; Colwell, KS; Goddard, WA; Skiff, WM. 
 JOURNAL OF THE AMERICAN CHEMICAL SOCIETY, 114 (25), 10024-10035 (1992). 
 UFF, a full periodic table force field for molecular
 mechanics and molecular dynamics simulations.
 http://dx.doi.org/10.1021/ja00051a040


 -------------------------------------------------------------------------------
 -                                                                             -
 -                                T I M I N G                                  -
 -                                                                             -
 -------------------------------------------------------------------------------
 SUBROUTINE                       CALLS  ASD         SELF TIME        TOTAL TIME
                                MAXIMUM       AVERAGE  MAXIMUM  AVERAGE  MAXIMUM
 CP2K                                 1  1.0    0.351    0.351 3922.278 3922.278
 qs_energies                          1  2.0    0.018    0.018 3863.033 3863.033
 scf_post_calculation_gpw             1  3.0    0.020    0.020 3590.020 3590.020
 qs_scf_post_charges                  1  4.0    0.017    0.017 3568.609 3568.609
 resp_fit                             1  5.0    0.032    0.032 3568.591 3568.591
 calc_resp_matrix_periodic            1  6.0   94.275   94.275 3531.671 3531.671
 pw_transfer                        437  7.8    0.046    0.046 2814.113 2814.113
 fft_wrap_pw1pw2                    229  8.7    0.003    0.003 2758.471 2758.471
 fft_wrap_pw1pw2_1250               220  9.6   87.089   87.089 2752.026 2752.026
 fft3d_s                            230 10.6 2102.839 2102.839 2102.845 2102.845
 calculate_rho_resp_single          102  7.0    0.392    0.392 1353.987 1353.987
 get_fitting_points                   1  7.0  627.206  627.206  627.206  627.206
 pw_gather_s                        116 11.1  305.402  305.402  305.402  305.402
 pw_scatter_s                       113 10.3  262.849  262.849  262.849  262.849
 scf_env_do_scf                       1  3.0    0.000    0.000  220.800  220.800
 init_scf_loop                        1  4.0    0.000    0.000  177.839  177.839
 qs_ks_update_qs_env                  2  5.0    0.000    0.000  175.286  175.286
 rebuild_ks_matrix                    1  6.0    0.000    0.000  175.284  175.284
 qs_ks_build_kohn_sham_matrix         1  7.0    0.041    0.041  175.284  175.284
 pw_poisson_solve                   104  7.0  112.111  112.111  168.550  168.550
 qs_vxc_create                        1  8.0    0.040    0.040  130.545  130.545
 xc_vxc_pw_create                     1  9.0    1.265    1.265  130.505  130.505
 qs_rho_update_rho                    2  5.0    0.000    0.000   80.111   80.111
 calculate_rho_elec                   2  6.0   27.521   27.521   80.111   80.111
 -------------------------------------------------------------------------------

 The number of warnings for this run is : 0
 
 -------------------------------------------------------------------------------
  **** **** ******  **  PROGRAM ENDED AT                 2017-10-13 14:47:29.424
 ***** ** ***  *** **   PROGRAM RAN ON                                   dhcppc7
 **    ****   ******    PROGRAM RAN BY                                  jdurholt
 ***** **    ** ** **   PROGRAM PROCESS ID                                 27352
  **** **  *******  **  PROGRAM STOPPED IN /home/jdurholt/work/cp2k/series/ZIF-8
                                           /repeat
